/*--------------------------------*- C++ -*----------------------------------*\
  =========                 |
  \\      /  F ield         | OpenFOAM: The Open Source CFD Toolbox
   \\    /   O peration     | Website:  https://openfoam.org
    \\  /    A nd           | Version:  12
     \\/     M anipulation  |
\*---------------------------------------------------------------------------*/
FoamFile
{
    format      ascii;
    class       volScalarField;
    location    "10";
    object      p;
}
// * * * * * * * * * * * * * * * * * * * * * * * * * * * * * * * * * * * * * //

dimensions      [1 -1 -2 0 0 0 0];

internalField   nonuniform List<scalar> 
39304
(
100068.42057195131
100068.42076565158
100068.42087942405
100068.42093585354
100068.42098064892
100068.42101964582
100068.42105890282
100068.42110090154
100068.42114748944
100068.42119988451
100068.42125956043
100068.42132810198
100068.42140739625
100068.42149986199
100068.4216087098
100068.4217383083
100068.42189446351
100068.42208429145
100068.42231394351
100068.42257844715
100068.422844282
100068.42304519868
100068.42312078609
100068.42305646371
100068.42287907533
100068.42264502376
100068.42242321793
100068.42229651194
100068.42237011369
100068.42284108102
100068.42418723876
100068.42737982754
100068.43281689606
100068.43731473009
100068.07778545871
100068.07767749559
100068.07775608622
100068.07778390935
100068.0778193648
100068.07785368517
100068.07789022005
100068.077930296
100068.07797509361
100068.0780259164
100068.07808385376
100068.07815017767
100068.07822640562
100068.07831436963
100068.07841627709
100068.07853467893
100068.07867214917
100068.0788302625
100068.07900628305
100068.0791836749
100068.0793126692
100068.07930398584
100068.07909649168
100068.07873652405
100068.07831148422
100068.0778896082
100068.0775079209
100068.07720976084
100068.07705399362
100068.07718380461
100068.07786839128
100068.07951577213
100068.08238102221
100068.08613776337
100067.73467889942
100067.73453361832
100067.73460918217
100067.73462363468
100067.73465407848
100067.73468428352
100067.73471778646
100067.73475531119
100067.73479770849
100067.73484586264
100067.73490061719
100067.73496287131
100067.73503360215
100067.73511382262
100067.73520444246
100067.73530590278
100067.73541729448
100067.73553442438
100067.73564566503
100067.73572428637
100067.73571963834
100067.73556491607
100067.73521931094
100067.7347361193
100067.73421163406
100067.73372997687
100067.73333671312
100067.73306418236
100067.73295795154
100067.73307286941
100067.73345299876
100067.73420006607
100067.7353270961
100067.73800729125
100067.39152418854
100067.39139420519
100067.39145454597
100067.39146084273
100067.39148581715
100067.39151171823
100067.39154170382
100067.39157601712
100067.39161518648
100067.39165973428
100067.39171015903
100067.39176693672
100067.3918304523
100067.39190087376
100067.39197788526
100067.39206017554
100067.39214446183
100067.39222371779
100067.39228411249
100067.39230051186
100067.39223290207
100067.39203361177
100067.39166997386
100067.39117380082
100067.3906164613
100067.39008573591
100067.38962736726
100067.38929234067
100067.38912681658
100067.38934743003
100067.38959658022
100067.39006454439
100067.3901065526
100067.39195577227
100067.04835385813
100067.04823737884
100067.04828903994
100067.04829149714
100067.04831245642
100067.04833472264
100067.04836129515
100067.0483922241
100067.04842777508
100067.04846818885
100067.04851366852
100067.04856429834
100067.04861994763
100067.04868009858
100067.0487435424
100067.04880787614
100067.04886867794
100067.04891823267
100067.0489437528
100067.04892543227
100067.04883580779
100067.04864467836
100067.04833114149
100067.04791208093
100067.04743376646
100067.04697516737
100067.04659645245
100067.046363323
100067.04630421323
100067.04643271703
100067.04660528645
100067.04691366857
100067.0467216531
100067.04769244883
100066.70517413352
100066.70507175158
100066.7051161368
100066.70511655911
100066.705134242
100066.70515335066
100066.70517667367
100066.70520417909
100066.70523594209
100066.70527201472
100066.70531235619
100066.70535674757
100066.70540467802
100066.70545516764
100066.70550649025
100066.70555576326
100066.70559835731
100066.70562712387
100066.70563154295
100066.70559716072
100066.70550628916
100066.70534133086
100066.70509182529
100066.70477232093
100066.70441237176
100066.7040562051
100066.70375261264
100066.70355064292
100066.70347089693
100066.70354580831
100066.70368224317
100066.70390089568
100066.70389683532
100066.7042177549
100066.36198837124
100066.36189841738
100066.36193697013
100066.36193643113
100066.36195143015
100066.36196779191
100066.36198807863
100066.36201223532
100066.36204024697
100066.36207203376
100066.36210738974
100066.3621458978
100066.36218681713
100066.36222892461
100066.36227029275
100066.36230799351
100066.36233772917
100066.36235343768
100066.36234699648
100066.36230832779
100066.36222643255
100066.36209150987
100066.36190027422
100066.36166552592
100066.36140521499
100066.36114633025
100066.36092447472
100066.36077714807
100066.36071367099
100066.36073599035
100066.36081150002
100066.36093504046
100066.36098689726
100066.36109372531
100066.01879877884
100066.01871902069
100066.01875291755
100066.01875186872
100066.01876455372
100066.01877846064
100066.01879595433
100066.01881690623
100066.01884130856
100066.01886902489
100066.01889976609
100066.01893301855
100066.01896794421
100066.01900325241
100066.01903703522
100066.0190665766
100066.01908815013
100066.01909686398
100066.01908666786
100066.01905071936
100066.01898224265
100066.01887600622
100066.01873212219
100066.01856012964
100066.0183733469
100066.01818850302
100066.01802707295
100066.01791109155
100066.01785051454
100066.01784860248
100066.0178889344
100066.01796025209
100066.01801459859
100066.0180562992
100065.67560650365
100065.67553500251
100065.67556518411
100065.67556363513
100065.67557422986
100065.67558593678
100065.67560075795
100065.6756186717
100065.67563967177
100065.67566362857
100065.67569024619
100065.67571900213
100065.67574906681
100065.67577920598
100065.67580766753
100065.67583206705
100065.67584929978
100065.67585552642
100065.67584631305
100065.67581700243
100065.67576342067
100065.67568290232
100065.67557646938
100065.67544996848
100065.67531616993
100065.67518380861
100065.67506568748
100065.67497505993
100065.67492585978
100065.67491305697
100065.67493045263
100065.67496999761
100065.67500963918
100065.67503343236
100065.33241225212
100065.33234744343
100065.33237451037
100065.3323723022
100065.33238114099
100065.33239070688
100065.33240296658
100065.33241797957
100065.33243579061
100065.33245632316
100065.33247933508
100065.33250436766
100065.33253067818
100065.33255716958
100065.33258231293
100065.33260409204
100065.33261997766
100065.3326269781
100065.33262180971
100065.33260122759
100065.33256256352
100065.3325044151
100065.33242772891
100065.33233731707
100065.33224199669
100065.33214769572
100065.33206229274
100065.33199518899
100065.33195297496
100065.33193671983
100065.33194224298
100065.33196411416
100065.33199006488
100065.33200886396
100064.98921656812
100064.9891572726
100064.98918167478
100064.98917883544
100064.98918582289
100064.98919324974
100064.98920299542
100064.98921519954
100064.98922999571
100064.98924740145
100064.98926727967
100064.9892892919
100064.98931283961
100064.98933701061
100064.98936052829
100064.9893817277
100064.98939856129
100064.98940867014
100064.98940955214
100064.989398841
100064.98937470798
100064.98933635044
100064.98928463152
100064.98922230568
100064.98915673843
100064.98909150528
100064.98903077336
100064.98898256947
100064.98894973524
100064.9889344816
100064.98893456312
100064.98894683635
100064.98896291172
100064.98898003575
100064.64601995284
100064.64596525456
100064.64598725639
100064.64598362682
100064.64598875429
100064.645993998
100064.64600120106
100064.64601061297
100064.64602248672
100064.64603697493
100064.64605408914
100064.64607365416
100064.6460952568
100064.6461181999
100064.64614146328
100064.64616369669
100064.64618323564
100064.64619816243
100064.64620647336
100064.64620631626
100064.6461962874
100064.64617573984
100064.64614520238
100064.64610674691
100064.64606483502
100064.64602268988
100064.64598230403
100064.64594957608
100064.64592654997
100064.6459150469
100064.64591381446
100064.64592137669
100064.64593123645
100064.64594764121
100064.30282289593
100064.30277208668
100064.30279186409
100064.30278728415
100064.30279042658
100064.30279334888
100064.30279788247
100064.30280440826
100064.30281333026
100064.30282497313
100064.30283953641
100064.30285704794
100064.30287731288
100064.30289986855
100064.30292394791
100064.30294848095
100064.30297211481
100064.30299320699
100064.30301003069
100064.30302096506
100064.30302477704
100064.30302078069
100064.30300915269
100064.30299102553
100064.30296880052
100064.30294576949
100064.30292298523
100064.30290430566
100064.30289101726
100064.30288474221
100064.30288471458
100064.30289064345
100064.30289645943
100064.3029127562
100063.95962589758
100063.95957842752
100063.95959607331
100063.95959034067
100063.95959130232
100063.95959166938
100063.95959328649
100063.95959669011
100063.95960246756
100063.95961115375
100063.95962317644
100063.95963881057
100063.95965811027
100063.9596808632
100063.95970655148
100063.95973434713
100063.95976320113
100063.95979156886
100063.95981785952
100063.95984047138
100063.95985809034
100063.95986980357
100063.95987538702
100063.95987530229
100063.95987060046
100063.95986468409
100063.95985783177
100063.95985204757
100063.95984835534
100063.95984809242
100063.95985078267
100063.95985692104
100063.95986002102
100063.95987670626
100063.61642948809
100063.61638492854
100063.61640047192
100063.61639334829
100063.61639185506
100063.61638931763
100063.61638762304
100063.61638749061
100063.61638972798
100063.61639512074
100063.61640437368
100063.61641804955
100063.61643649415
100063.61645977371
100063.61648760385
100063.6165193315
100063.61655441362
100063.61659097113
100063.616627489
100063.61666223806
100063.61669370045
100063.61672080372
100063.61674294651
100063.61676010575
100063.61677261897
100063.61678247155
100063.61679027321
100063.6167966381
100063.61680240835
100063.61680858891
100063.61681490103
100063.61682237951
100063.61682366805
100063.61684112444
100063.27323424947
100063.27319227006
100063.27320569051
100063.27319689843
100063.27319257964
100063.27318665769
100063.27318108386
100063.27317678719
100063.27317483797
100063.27317632164
100063.27318227648
100063.27319361729
100063.27321103723
100063.27323492416
100063.2732652564
100063.27330115913
100063.2733437102
100063.27338938235
100063.27343686859
100063.27348457871
100063.27353076404
100063.27357389183
100063.27361283815
100063.27364700458
100063.27367620249
100063.27370136345
100063.27372293323
100063.27374106321
100063.2737562098
100063.27376909246
100063.27377957432
100063.27378913324
100063.27378930799
100063.27380780605
100062.93004083924
100062.93000118886
100062.9300124257
100062.93000163813
100062.9299940249
100062.9299840889
100062.9299738683
100062.92996452907
100062.92995744661
100062.92995407058
100062.92995584614
100062.92996412299
100062.92998002557
100062.93000433421
100062.93003767378
100062.93008028492
100062.93012901157
100062.93018448651
100062.93024438708
100062.93030650461
100062.93036863246
100062.93042873716
100062.93048513337
100062.9305366411
100062.93058257079
100062.93062297914
100062.9306580532
100062.93068783209
100062.9307123357
100062.93073209512
100062.93074705987
100062.93075923019
100062.93075883467
100062.93077855131
100062.58685001993
100062.58681251394
100062.5868214798
100062.58680831881
100062.58679683674
100062.58678208503
100062.58676621907
100062.58675066284
100062.58673714397
100062.58672754587
100062.58672381955
100062.5867278654
100062.58674136852
100062.58676560668
100062.58680118051
100062.58684887957
100062.58690675988
100062.58697380825
100062.58704782616
100062.58712616173
100062.58720601856
100062.58728469665
100062.58735984736
100062.5874296602
100062.58749290482
100062.58754898689
100062.58759769163
100062.58763920437
100062.58767310885
100062.5876998707
100062.58771948217
100062.5877345965
100062.58773402512
100062.5877551075
100062.24366268798
100062.24362720278
100062.24363379834
100062.24361783455
100062.24360179926
100062.24358125257
100062.24355848522
100062.2435351907
100062.24351349733
100062.24349580324
100062.24348468447
100062.24348273664
100062.24349236577
100062.2435154999
100062.24355343127
100062.24360654605
100062.2436740995
100062.24375435589
100062.24384463675
100062.24394161439
100062.24404167556
100062.24414125113
100062.24423716498
100062.24432687623
100062.24440856256
100062.24448109978
100062.24454396559
100062.24459739334
100062.24464076514
100062.24467458519
100062.24469888506
100062.24471710883
100062.24471660214
100062.24473920868
100061.90047991132
100061.90044638926
100061.90045050986
100061.90043126908
100061.90040988933
100061.90038238173
100061.90035117962
100061.90031823609
100061.90028611899
100061.90025782448
100061.90023669928
100061.90022623341
100061.90022977162
100061.90025018065
100061.90028944821
100061.90034851925
100061.90042685704
100061.90052238698
100061.90063174491
100061.90075062802
100061.900874283
100061.90099797904
100061.90111748005
100061.90122937578
100061.9013311968
100061.90142136486
100061.90149905093
100061.90156466665
100061.90161754622
100061.90165837017
100061.90168725404
100061.90170859359
100061.9017082245
100061.90173257997
100061.55730297432
100061.55727143375
100061.55727297298
100061.5572499408
100061.55722234066
100061.55718653793
100061.55714508019
100061.55710013966
100061.55705473997
100061.55701256201
100061.55697790097
100061.55695540743
100061.55694969695
100061.5569649375
100061.55700415192
100061.55706917572
100061.55715964735
100061.55727313551
100061.557405325
100061.55755052256
100061.55770237398
100061.55785457173
100061.55800148874
100061.55813864325
100061.55826288149
100061.55837250069
100061.55846508186
100061.55854344982
100061.55860576902
100061.5586533515
100061.55868652884
100061.55871082396
100061.55871067761
100061.55873691368
100061.21413342962
100061.21410397252
100061.21410281809
100061.21407545438
100061.21404071548
100061.21399515467
100061.21394135003
100061.21388159487
100061.21381935239
100061.21375905297
100061.21370613815
100061.21366678207
100061.21364735391
100061.21365376265
100061.21369067198
100061.21376121396
100061.21386540256
100061.21400036653
100061.21416044472
100061.21433796022
100061.2145242789
100061.21471089336
100061.21489031169
100061.21505668906
100061.21520601971
100061.21533624592
100061.21544615264
100061.21553665701
100061.21560789675
100061.21566164709
100061.21569853376
100061.21572538433
100061.21572525578
100061.21575368736
100060.87097314412
100060.87094592505
100060.87094199403
100060.87090970544
100060.87086696236
100060.87081015001
100060.87074170787
100060.87066385985
100060.87058039704
100060.87049653131
100060.87041908989
100060.87035618264
100060.87031658944
100060.87030883734
100060.87033983388
100060.87041485339
100060.87053460449
100060.87069571653
100060.87089060989
100060.87110870321
100060.8713380812
100060.87156709487
100060.87178572404
100060.87198642499
100060.87216430772
100060.87231727151
100060.87244465409
100060.87254713173
100060.87262641919
100060.87268529089
100060.87272491929
100060.87275363396
100060.8727531937
100060.87278413204
100060.52782429977
100060.52779933008
100060.52779285568
100060.52775484472
100060.5277035687
100060.52763414494
100060.52754874251
100060.52744910915
100060.52733919957
100060.52722494646
100060.527114729
100060.52701912419
100060.52695017806
100060.52692021641
100060.52693963023
100060.52701685923
100060.52715421011
100060.52734774412
100060.52758707355
100060.52785728029
100060.52814155935
100060.52842380415
100060.52869046862
100060.52893192296
100060.52914246828
100060.52932010041
100060.52946487091
100060.5295782414
100060.5296639156
100060.52972614841
100060.52976700735
100060.52979650768
100060.52979522049
100060.52982901158
100060.18468927681
100060.18466556871
100060.18465823522
100060.18461288056
100060.18455372327
100060.18447064227
100060.18436621272
100060.18424095729
100060.18409855165
100060.18394541083
100060.18379160968
100060.18365079098
100060.18353940597
100060.18347511558
100060.18347390243
100060.18354923613
100060.18370627561
100060.18394063762
100060.18423789392
100060.1845765324
100060.18493229234
100060.18528251252
100060.18560880944
100060.18589895955
100060.1861470158
100060.18635074997
100060.18651169266
100060.18663365013
100060.18672285916
100060.18678569836
100060.18682553983
100060.18685425688
100060.18685132185
100060.18688837461
100059.84157093804
100059.8415431951
100059.84154219796
100059.84148510035
100059.84142270057
100059.84132516672
100059.84120069256
100059.84104635414
100059.84086502169
100059.84066302613
100059.84045212936
100059.84024960919
100059.84007768883
100059.83996147772
100059.83992552271
100059.83998997316
100059.84016740149
100059.8404531767
100059.84082698839
100059.84125722387
100059.84170789494
100059.84214627207
100059.84254739308
100059.84289605604
100059.84318653563
100059.84341696405
100059.84359085048
100059.84371710624
100059.84380533687
100059.84386470537
100059.84390032453
100059.84392608504
100059.84392036026
100059.84396118621
100059.49847615535
100059.49842270646
100059.49845044318
100059.49837173872
100059.49831859655
100059.49820568693
100059.4980630879
100059.49787798783
100059.49765242929
100059.49739156035
100059.49710818057
100059.49682336887
100059.49656657469
100059.49637267129
100059.49627991326
100059.49631857437
100059.4965139174
100059.49686262172
100059.49733656357
100059.49788940829
100059.49846712666
100059.49902154229
100059.49951670157
100059.49993625752
100059.5002733968
100059.50052740586
100059.50070849432
100059.50083200948
100059.50091247463
100059.50096263831
100059.50098972039
100059.5010096772
100059.50099968926
100059.50104496504
100059.15543384974
100059.15527714469
100059.15539553814
100059.15527995517
100059.15526356926
100059.15513365582
100059.15498505509
100059.15477269342
100059.15450316352
100059.15417773106
100059.15380928424
100059.15342241063
100059.15305498125
100059.15275323488
100059.15257515841
100059.15255737708
100059.15275684296
100059.15317115436
100059.15376413711
100059.15447178599
100059.15521457967
100059.15591819675
100059.15653495755
100059.15703808643
100059.15742331538
100059.15769301377
100059.15787074625
100059.15798061834
100059.15804365327
100059.15807692381
100059.15809002267
100059.15810064046
100059.15808459421
100059.1581353379
100058.81258525583
100058.81204137659
100058.81236949419
100058.81218853494
100058.8122542542
100058.8121193688
100058.81199973568
100058.81178063821
100058.81148311812
100058.81110119971
100058.81064643213
100058.81014632538
100058.80964868054
100058.8092152547
100058.80891686783
100058.80883396482
100058.8090150629
100058.80946812495
100058.81016716159
100058.81103996332
100058.81197783537
100058.81286617929
100058.81363267072
100058.81423208417
100058.81465469982
100058.81492511059
100058.81508222029
100058.81516257512
100058.81519528761
100058.81520199445
100058.81519466978
100058.81519194861
100058.81516776678
100058.81522527573
100058.47041255343
100058.46856385625
100058.46950973118
100058.46934855291
100058.46952375563
100058.46938095574
100058.4693010067
100058.46907439461
100058.46877011856
100058.46836306287
100058.4678586833
100058.46728131836
100058.46668247344
100058.46614176377
100058.46574801493
100058.46551349788
100058.465593758
100058.46600837688
100058.46674315851
100058.4677310038
100058.46884688202
100058.4699353077
100058.4708614386
100058.47154765112
100058.4719893584
100058.47223352062
100058.47234340268
100058.47237252195
100058.4723590355
100058.47232821595
100058.47229351172
100058.47227327507
100058.47223914531
100058.47230479456
100058.1295617751
100058.12597387015
100058.12645148256
100058.12618425312
100058.12655588475
100058.12650225135
100058.1265946951
100058.12651048787
100058.12630196464
100058.12595751425
100058.12547993823
100058.12489298458
100058.12425073459
100058.1236425574
100058.12313487618
100058.12287189937
100058.12292131319
100058.12327642628
100058.12393782441
100058.12489111423
100058.12605864619
100058.12726644153
100058.12830069789
100058.12903320699
100058.12944928445
100058.12962114411
100058.12964576908
100058.12959671718
100058.12951978862
100058.1294410268
100058.12937299201
100058.12933164765
100058.12928551785
100058.12936055387
100057.79217456689
100057.78665696413
100057.78493298627
100057.78465324877
100057.78479291835
100057.78481184092
100057.7847822922
100057.78468053167
100057.78449019701
100057.78418850263
100057.78376741994
100057.78324303632
100057.78266286661
100057.78210686016
100057.78168089814
100057.78148374546
100057.78147339307
100057.7816993389
100057.78219173028
100057.78295845923
100057.78397873977
100057.78512057175
100057.78609755421
100057.78675751906
100057.78704787775
100057.78707186307
100057.78696283985
100057.78680833259
100057.78665382964
100057.78652006887
100057.78641491233
100057.78634896499
100057.78628960514
100057.78637578449
100057.459189922
100057.45103054318
100057.44560373652
100057.44322548748
100057.44263765038
100057.44255800422
100057.44262131944
100057.44265105811
100057.44256071349
100057.4423401395
100057.44199999303
100057.44156602275
100057.44108426919
100057.44064853396
100057.44041952581
100057.44040979249
100057.44056468262
100057.4408725137
100057.44135046897
100057.44200031112
100057.44280436622
100057.44367664336
100057.44438764447
100057.44476398174
100057.444757007
100057.44452871772
100057.44423849283
100057.4439632133
100057.44372970039
100057.44354417623
100057.44340571132
100057.44331725748
100057.44324615863
100057.44332038645
100057.13287365279
100057.12292053463
100057.11206744258
100057.10617036908
100057.10394758533
100057.10308817186
100057.10263194075
100057.10231652913
100057.10205582109
100057.10176872775
100057.10141323009
100057.10100155459
100057.10060183884
100057.10030525878
100057.10015690385
100057.10019604684
100057.10040221954
100057.10074276538
100057.10118698423
100057.10168636753
100057.10215826418
100057.10251078258
100057.10266254317
100057.10256423008
100057.1022358363
100057.10179548594
100057.10136548799
100057.10100225602
100057.10071457094
100057.10049473781
100057.10033125988
100057.10021452876
100057.10011905144
100057.10004250637
100068.42063202326
100068.42078780606
100068.42089042875
100068.42094166231
100068.42098365037
100068.42102134305
100068.42105988607
100068.42110151474
100068.42114789448
100068.42120022852
100068.42125992719
100068.42132858903
100068.42140816632
100068.42150123762
100068.4216113904
100068.42174374027
100068.42190569475
100068.42210725235
100068.4223570778
100068.42264410794
100068.42291579272
100068.42309011272
100068.42311528501
100068.4229935987
100068.42277635931
100068.4225194274
100068.42228433469
100068.42215296582
100068.4222381368
100068.42272523155
100068.42412653194
100068.42740095191
100068.4330249359
100068.43806861046
100068.07782902315
100068.07769549328
100068.07776455609
100068.07778875819
100068.07782185965
100068.07785514893
100068.07789110424
100068.07793086651
100068.07797551823
100068.07802626964
100068.07808423325
100068.07815068272
100068.0782271841
100068.07831568806
100068.07841863611
100068.07853901011
100068.07868018033
100068.07884491864
100068.07903076215
100068.07921417116
100068.07932352051
100068.07925332146
100068.07898178756
100068.07858594532
100068.07815737771
100068.07774003639
100068.07736749819
100068.07708425878
100068.0769593989
100068.07716416409
100068.07784172927
100068.07942943923
100068.08227087978
100068.08624469349
100067.73471776258
100067.73455035069
100067.73461646301
100067.7346283626
100067.73465642675
100067.7346857082
100067.73471868702
100067.73475592789
100067.73479817441
100067.73484626657
100067.73490104867
100067.7349634243
100067.73503440722
100067.73511509076
100067.73520652995
100067.73530940672
100067.73542314087
100067.73554368981
100067.73565832796
100067.73573557257
100067.73571507819
100067.7355227571
100067.73515286384
100067.73466997671
100067.73416783502
100067.73371754974
100067.73334676276
100067.73308957167
100067.73300254394
100067.73310647301
100067.73343642587
100067.73415079662
100067.73521853087
100067.73796851191
100067.39155681408
100067.39140717663
100067.3914608512
100067.39146493946
100067.39148786428
100067.39151299972
100067.39154254051
100067.39157662043
100067.39161565407
100067.39166015301
100067.39171060438
100067.39176748708
100067.39183121204
100067.39190199776
100067.39197961445
100067.39206286872
100067.39214858908
100067.39222964899
100067.39229130289
100067.39230561876
100067.39222767633
100067.39200508817
100067.3916261165
100067.39113123401
100067.39059229135
100067.39008708803
100067.38964587048
100067.38932305243
100067.38912869345
100067.38939484449
100067.38960166508
100067.39006950858
100067.3900476189
100067.39191535728
100067.04838245126
100067.04824882909
100067.04829460169
100067.04829518303
100067.04831429539
100067.04833590123
100067.04836209268
100067.04839281323
100067.04842823496
100067.04846860895
100067.0485141114
100067.04856482829
100067.04862064587
100067.04868107589
100067.04874495734
100067.04880994261
100067.04887163498
100067.04892220146
100067.04894832354
100067.04892881897
100067.04883383984
100067.04863076516
100067.04830599589
100067.04788483914
100067.04740212136
100067.04696681486
100067.0466091257
100067.04639760383
100067.04637909892
100067.04646918917
100067.04662879232
100067.04692771168
100067.04672475484
100067.04769713841
100066.70519979749
100066.70508185925
100066.70512103922
100066.7051198416
100066.70513588487
100066.70515441948
100066.70517741116
100066.70520474306
100066.70523638245
100066.70527242182
100066.70531278339
100066.70535724632
100066.7054053092
100066.70545601111
100066.70550765104
100066.7055573703
100066.70560054014
100066.70562993319
100066.70563475841
100066.70559995197
100066.70550686766
100066.7053371314
100066.70508074146
100066.70475276973
100066.70439048245
100066.70404277729
100066.70374924972
100066.70355627233
100066.70348546898
100066.70355659793
100066.70369141205
100066.70391017899
100066.70392541061
100066.70422740612
100066.36201169954
100066.36190735603
100066.36194138501
100066.3619393621
100066.36195290448
100066.36196875325
100066.36198872089
100066.36201266381
100066.36204063169
100066.36207240797
100066.36210778635
100066.36214635425
100066.36218737916
100066.3622296494
100066.36227125065
100066.36230926472
100066.36233938979
100066.36235552035
100066.36234940791
100066.36231072855
100066.36222810514
100066.36209147739
100066.36189610521
100066.36165514695
100066.36139324687
100066.36113617047
100066.36091761211
100066.3607737709
100066.36071561696
100066.36074049206
100066.36081773227
100066.36094298406
100066.36100172979
100066.36111135315
100066.01882022772
100066.01872702349
100066.01875698172
100066.01875449363
100066.01876589711
100066.01877934634
100066.01879652252
100066.0188173021
100066.01884165574
100066.0188693618
100066.01890012233
100066.01893342476
100066.01896843608
100066.01900387096
100066.01903782942
100066.01906759846
100066.01908944787
100066.01909846415
100066.01908854386
100066.01905274771
100066.01898418137
100066.01887760652
100066.0187318221
100066.01855540265
100066.01836828045
100066.01818376915
100066.01802339249
100066.01790893596
100066.01785048548
100066.01785022432
100066.01789261003
100066.01796630262
100066.01802476661
100066.0180719847
100065.67562641682
100065.67554219127
100065.67556885422
100065.67556598822
100065.67557547061
100065.67558670453
100065.67560122992
100065.67561903065
100065.67563998145
100065.67566392434
100065.67569055638
100065.67571935382
100065.67574948927
100065.67577973046
100065.67580832852
100065.67583289996
100065.67585033692
100065.67585679036
100065.67584780174
100065.67581868581
100065.67576528789
100065.67568524957
100065.67557999871
100065.67544633459
100065.67531437919
100065.67518255331
100065.67506505061
100065.67497713168
100065.67492731016
100065.67491485996
100065.67493351913
100065.67497458011
100065.67501676238
100065.67504562554
100065.33243086583
100065.33235388566
100065.332377718
100065.33237454093
100065.33238223418
100065.33239136091
100065.33240339087
100065.33241829937
100065.33243605867
100065.33245657413
100065.33247959675
100065.33250466465
100065.33253103559
100065.33255761131
100065.33258286475
100065.33260477948
100065.33262082309
100065.33262799754
100065.33262300424
100065.33260258839
100065.33256408748
100065.33250617198
100065.33242960695
100065.33233704565
100065.33224189728
100065.33214791826
100065.33206257033
100065.33199561083
100065.3319542028
100065.33193807474
100065.33194431993
100065.33196736708
100065.33199491979
100065.3320184359
100064.9892341149
100064.9891631333
100064.98918471081
100064.9891808516
100064.9891867586
100064.98919382755
100064.98920337936
100064.98921547884
100064.9892302215
100064.98924760766
100064.98926749332
100064.98928953608
100064.98931313679
100064.9893373805
100064.98936099141
100064.98938230217
100064.98939926222
100064.98940950744
100064.98941052593
100064.98939994442
100064.98937591939
100064.98933762287
100064.98928574224
100064.98922322327
100064.98915726226
100064.98909219704
100064.98903205035
100064.98898327348
100064.98895058889
100064.988935481
100064.9889360159
100064.98894911584
100064.98896637173
100064.98898801317
100064.64603663719
100064.6459706521
100064.64599012601
100064.6459854112
100064.64598961201
100064.64599453719
100064.6460015458
100064.6460108524
100064.64602267172
100064.64603713888
100064.64605425789
100064.64607384939
100064.64609549847
100064.64611850544
100064.64614185295
100064.64616418532
100064.64618383365
100064.64619887246
100064.64620729363
100064.64620724267
100064.64619729632
100064.64617679073