/*--------------------------------*- C++ -*----------------------------------*\
  =========                 |
  \\      /  F ield         | OpenFOAM: The Open Source CFD Toolbox
   \\    /   O peration     | Website:  https://openfoam.org
    \\  /    A nd           | Version:  12
     \\/     M anipulation  |
\*---------------------------------------------------------------------------*/
FoamFile
{
    format      ascii;
    class       volScalarField;
    location    "10";
    object      p_rgh;
}
// * * * * * * * * * * * * * * * * * * * * * * * * * * * * * * * * * * * * * //

dimensions      [1 -1 -2 0 0 0 0];

internalField   nonuniform List<scalar> 
39304
(
68.591580825324669
68.592325287589617
68.592461706491562
68.592519314587335
68.5925641871914
68.592603197388684
68.592642460995336
68.592684464149897
68.592731055319234
68.592783453009957
68.592843131233465
68.592911674934214
68.592990971375173
68.593083439491494
68.593192290434686
68.59332189710581
68.593478105197988
68.593668353951827
68.593900877398895
68.59418033516917
68.594500745027844
68.594830817279828
68.595096813417172
68.595211928172475
68.595152468229699
68.594979228794614
68.594784569965384
68.594668196953776
68.594743621191427
68.595211674952438
68.596551996777265
68.599741879325379
68.605193178765518
68.609748496524915
68.590537128583506
68.5923321666465
68.592499793945407
68.592532337040055
68.59256810302017
68.592602487154437
68.5926390593186
68.592679162398781
68.592723981189607
68.592774821627088
68.592832774771125
68.592899113771168
68.592975357208559
68.593063338208722
68.593165266154443
68.593283699268682
68.593421261967578
68.593579900647327
68.593759207183339
68.5939539390357
68.594152745634261
68.594343171229596
68.594515250217867
68.594631700353474
68.594616079065702
68.594449759834987
68.594179772130047
68.593892255029232
68.593682464412993
68.593719084906596
68.594304239246014
68.595944040686575
68.59896635076133
68.603280524945831
68.588893453805525
68.592250063466764
68.592509757908545
68.592534445298043
68.592565551555438
68.592595887452575
68.592629471931048
68.592667059823313
68.592709508633305
68.592757707080423
68.592812501943982
68.592874794949637
68.592945565717486
68.593025829685033
68.593116499820837
68.593218023397313
68.593329515948199
68.593446945054481
68.593559719358979
68.593646616333018
68.593679100683701
68.59365040864644
68.593608342066446
68.59362474686786
68.593669292580913
68.593656993419117
68.593538126312325
68.593327387970319
68.593089255812487
68.592914803113516
68.593025431601703
68.59371349833944
68.595298998060287
68.599747052440222
68.586985632306522
68.592143590528138
68.592507423306245
68.592531501079989
68.592557607527084
68.59258371139704
68.592613826116917
68.592648243992528
68.592687501850833
68.592732127609864
68.592782624534593
68.59283947249078
68.59290306017148
68.592973559516381
68.593050659288807
68.593133053886291
68.593217472327026
68.593296937481441
68.593357919449971
68.59337701471226
68.593322203614662
68.593172949962536
68.592956303558225
68.592767613120799
68.592661517004686
68.592608593090716
68.59252391026493
68.592373967867047
68.592167348535796
68.592039721121026
68.591827203045355
68.592082049446262
68.592760701038571
68.598211010308148
68.584882892162668
68.591996574409961
68.592490007099329
68.59251952428302
68.592542185065568
68.59256472304331
68.592591468360865
68.592622542394253
68.592658219967603
68.592698747952596
68.59274433479392
68.592795069770048
68.592850827250558
68.592911094033838
68.592974666589498
68.59303914810701
68.593100124537941
68.593149896943402
68.593175746677048
68.593158259941546
68.593071987792953
68.592894831499223
68.592629113771451
68.592334538505895
68.592093251058174
68.591933752613301
68.591821557699092
68.591727441851447
68.591619793741145
68.591544063683529
68.591483233103688
68.591607369006738
68.591781187069046
68.598387479589647
68.582616968169305
68.591818125266045
68.592461016086332
68.592499493340966
68.592519548898963
68.59253899437924
68.592562527278048
68.59259021391486
68.592622139121772
68.592658360839437
68.592698844298567
68.592743376110988
68.592791450966985
68.592842094004922
68.592893584590527
68.592943045760322
68.592985854917742
68.593014872195866
68.593019594162584
68.592985637208855
68.592895685488159
68.59273383977812
68.592495545415986
68.592211747549698
68.591933991632843
68.591701454411833
68.591519315237591
68.591376775929845
68.591258903594607
68.591257687809886
68.591313581212844
68.591502265705955
68.592068922034215
68.59927331000857
68.580210775772002
68.59161117693003
68.592421731152982
68.592471827815046
68.59248996726123
68.592506727101537
68.592527252962455
68.592551620712499
68.592579825367238
68.592611792556312
68.592647322512164
68.59268600381256
68.592727101037013
68.59276939611064
68.592810966784754
68.592848890185806
68.592878874564036
68.592894863954413
68.592888741716109
68.592850441602522
68.592769015429269
68.592634917719536
68.592445909194737
68.592218483249198
68.591977485446492
68.591752288623553
68.591566480984554
68.591434724493553
68.591358239395973
68.591362811455838
68.591423751042811
68.59159465411976
68.592451937984791
68.600555580083693
68.577681443635328
68.591378839777477
68.592373640517252
68.592437293441662
68.592453978636883
68.592468341516138
68.592486095740369
68.59250728151541
68.592531901359081
68.592559824298945
68.592590766844708
68.592624220572787
68.59265935272191
68.592694877206597
68.592728890873545
68.592758682395285
68.592780530170714
68.592789546635174
68.592779683983636
68.59274410088419
68.59267602383089
68.592570243948387
68.592426996380198
68.592256358995641
68.592072884013405
68.591894212391935
68.59173980519283
68.591626635584944
68.591563732664284
68.591559790034466
68.591603510908783
68.591755269183253
68.592811766825136
68.601912813309099
68.575041632737538
68.591123701289533
68.592318024228305
68.592396662411105
68.592412203627916
68.592424421690879
68.592439517441065
68.592457680395881
68.592478916062646
68.59250309938993
68.592529939502896
68.592558918645835
68.59258921200832
68.592619589346441
68.592648303194466
68.592672973162252
68.592690497892377
68.59269704043048
68.592688167071714
68.592659219150619
68.592606017802311
68.592525891031855
68.592419860762064
68.592293821539812
68.592160651745303
68.592029203562888
68.591912034945267
68.591821731432233
68.591772253102306
68.591759781601837
68.591784241015162
68.591923586346212
68.593134400051426
68.603248775542198
68.572301341178189
68.590847907154867
68.592255792324664
68.592350514838898
68.5923653270399
68.592375456757068
68.592387997836894
68.592403268182451
68.592421325398959
68.592442096844366
68.592465345050783
68.592490615343578
68.592517169196242
68.592543913307836
68.592569323073633
68.592591385595242
68.59260757395522
68.592614896940304
68.592610069255926
68.592589843616025
68.592551545497656
68.592493762979174
68.592417428884602
68.592327351913099
68.592232329430857
68.592138273575046
68.592053016407675
68.591985922705703
68.591943599607561
68.591927836701217
68.591941599340444
68.592078771748561
68.593422916113838
68.604542026053039
68.569468729811334
68.590553362270754
68.592187840773889
68.59229982751144
68.592313887413837
68.592321928805688
68.592331955944246
68.592344417955672
68.592359462803543
68.592377111761323
68.592397231918582
68.592419488215782
68.592443286199938
68.592467717299556
68.59249150892677
68.5925129984509
68.59253013947847
68.59254057252565
68.592541792916236
68.592531430899356
68.592507650233159
68.592469639464355
68.592418249693281
68.592356225283922
68.592290912223461
68.592225861960458
68.59216521446875
68.592117023727994
68.592084120635207
68.59206940658413
68.592078559699431
68.592219325490561
68.593684910629179
68.60578795929159
68.56655067864601
68.59024175160117
68.592114866718916
68.592245003603566
68.592258363694654
68.59226427004991
68.592271747486834
68.592281409301648
68.592293525463475
68.592308252190904
68.592325604979123
68.59234541192464
68.592367263789185
68.592390467016799
68.592414005397558
68.592436530302564
68.59245637748252
68.59247162758578
68.592480273465071
68.592480458546206
68.592470772559338
68.592450558765066
68.592420336663125
68.592382168145051
68.592340503873615
68.59229854458124
68.592258259893114
68.592225588730258
68.592202552265576
68.592191648820616
68.592200158540479
68.592347388389243
68.593926214435172
68.606985523689033
68.563553094933724
68.589914661684531
68.59203761082621
68.592186664387214
68.592199249930047
68.592202878789379
68.592207671679731
68.592214430759157
68.592223579643502
68.592235446707704
68.592250235822746
68.592267978370614
68.592288483778688
68.59231129284808
68.5923356419746
68.592360461983105
68.59238439984307
68.592405811683903
68.59242296728641
68.592434239597836
68.592438387808144
68.59243472035395
68.592423405207342
68.592405562183444
68.59238358781657
68.592360760046574
68.59233811422348
68.592319537486617
68.592306302290012
68.592300680171462
68.592310927018545
68.592466079824405
68.59415065227347
68.608134386275424
68.560481133417156
68.589573628725049
68.591956793877984
68.592125358186863
68.592137009381318
68.592138121002321
68.592139973693477
68.592143584584761
68.592149563462456
68.592158449466964
68.592170675495794
68.592186520507298
68.592206043659033
68.592229035956976
68.592254982239311
68.592283055066858
68.592312204667508
68.592340884872499
68.592367500319156
68.592390447023703
68.59240840397436
68.592420449310495
68.592426348863185
68.592426556708787
68.592422124025816
68.592416447208663
68.592409776780926
68.592404141381706
68.592400567248305
68.592401005856146
68.592414417344756
68.59257815024695
68.594360099925339
68.609234031397165
68.557339365429158
68.589220205309715
68.591873164978111
68.592061655244564
68.592072118799365
68.592070355822486
68.592068862924734
68.592068900882452
68.592071302867581
68.592076859667841
68.592086282519418
68.592100139157694
68.592118781175984
68.59214227763762
68.592170346770317
68.592202335839147
68.592237701297648
68.59227456323822
68.592311401026706
68.592346483612616
68.592378287186818
68.592405733427896
68.592428211172418
68.592445687604112
68.592458502585728
68.592468637285748
68.592476668026109
68.592483231657184
68.592489186233081
68.592496120439904
68.592513571819396
68.592686137845078
68.594555603035502
68.610283979818817
68.554131889642491
68.588855981153287
68.591787530050595
68.591996169419176
68.592005081468571
68.591999953146058
68.591994535476147
68.59199035998887
68.591988525564958
68.591990124535073
68.59199620358055
68.592007683913337
68.5920252650983
68.592049337775876
68.59207988385414
68.59211602863607
68.592158850685237
68.59220482215845
68.592252630652538
68.592300681634455
68.59234722083454
68.592390706994721
68.59243001032462
68.59246452689473
68.592494071699605
68.592519558434788
68.592541409807609
68.592559794391462
68.592575190539904
68.59258888776823
68.592610926896597
68.592792200292067
68.594737963364494
68.611283664589862
68.550862427288408
68.58848263441223
68.591700759382348
68.591929568551862
68.591936451791469
68.5919273151097
68.591917190263771
68.591907907278269
68.591900873939736
68.591897549375048
68.591899389409988
68.59190775169462
68.591923768105886
68.591948222329634
68.591981744028672
68.592024575167713
68.592073560699077
68.592129330168106
68.592189556921213
68.592252028628906
68.592314531749807
68.592375024614697
68.59243181522956
68.592483721687685
68.592530047299576
68.592570829499593
68.592606244492487
68.592636339566894
68.592661157763672
68.592681801909251
68.592708712220698
68.592898095876635
68.594908518475279
68.612232231923642
68.547534392136924
68.588101946359316
68.591613840382294
68.591862626008378
68.591866880914623
68.591852916151367
68.591837065744727
68.591821480573586
68.591807925685998
68.591798296967596
68.59179455858623
68.591798620687669
68.591812177402872
68.591836511145786
68.591872227959129
68.591920121067815
68.591978244838415
68.592045585281113
68.592119939084967
68.59219865100772
68.592278915692049
68.5923580252405
68.592433625714335
68.592503895463153
68.592567591860828
68.59262410993189
68.592673226583742
68.592715124328862
68.592749412071484
68.592777133396822
68.592808997025344
68.593005444230116
68.595069134533219
68.613128342719349
68.544150927113051
68.587715772245915
68.591527915014169
68.591796266500666
68.591797164242649
68.591777367363292
68.591754510283934
68.591731077623052
68.59170923980389
68.591691411223863
68.591680184270089
68.591678166396633
68.591687774144717
68.591710942165918
68.591748968715564
68.591802245668944
68.591870026888088
68.591950577819148
68.592041214816533
68.592138603234389
68.592239118280759
68.592339181884185
68.592435610046451
68.59252584820041
68.592608060075932
68.59268111259378
68.59274447178683
68.592798361068972
68.59284219123569
68.592877047412614
68.592913799333431
68.593116030417988
68.595221514889602
68.613970075753599
68.540714940553059
68.58732607885301
68.5914443639073
68.591731615516011
68.591728291748808
68.591701465117211
68.591670036905313
68.591636816427638
68.591604418177113
68.591575860011432
68.591554507971381
68.591543866053541
68.591547290754264
68.591567658430364
68.591606964854989
68.591666162609599
68.591744716361873
68.591840551517606
68.591950296718196
68.592069637430384
68.592193807164634
68.592318065156306
68.592438164720718
68.592550675306157
68.592653111744568
68.592743888728691
68.59282215847216
68.592888322646473
68.592941745670146
68.592983683681453
68.593025110079097
68.593231674151667
68.595367003852402
68.614754900695104
68.537229106749521
68.586934933283203
68.59136486310878
68.591670038151804
68.591661503355922
68.591626270382548
68.591584410466581
68.591539017304427
68.591493165985995
68.591450564687406
68.591415530067195
68.591392730110613
68.591386794341517
68.591401902659356
68.591441090887997
68.591506203803704
68.591596884249057
68.591710697841307
68.591843319363889
68.59198904072781
68.592141493443464
68.592294353079168
68.592441974972786
68.592579854257721
68.592704818966695
68.592815156742205
68.592908425323074
68.592987443649733
68.593050402685577
68.593099178704904
68.593144881550089
68.593354132896337
68.595506901740777
68.615479634127524
68.533695880136762
68.586544681667675
68.591291495881407
68.591613193524395
68.591598358696004
68.591553198337152
68.591498766501942
68.591438337447357
68.591375431209173
68.591314511397925
68.591261041621053
68.591221217542156
68.591201427883362
68.591207595657309
68.591244403028284
68.591314997134347
68.591419398686341
68.591554727674051
68.59171530740656
68.591893441753484
68.592080478975589
68.592267884956087
68.592448141752882
68.592615381471035
68.592765577476769
68.592896651448385
68.593007366703233
68.593098640593894
68.593170631132068
68.593225660114953
68.593274952234253
68.59348498457264
68.595641967144985
68.616140184212441
68.530117506680767
68.586158300154622
68.59122679593014
68.591563008265226
68.591540758192849
68.591484094120148
68.591414730370659
68.591335919714027
68.591251513685933
68.591166763238675
68.591088520184925
68.591024923021649
68.590984777518798
68.590976626788716
68.591007410689642
68.591082474322377
68.5912025259221
68.591364142806285
68.591559691366044
68.591778559678431
68.592008818222141
68.592238792766125
68.59245843087308
68.592660163975566
68.592839079705826
68.592993046711626
68.593121382159183
68.593224766579411
68.593304931538725
68.5933651748405
68.59341698461904
68.593625576168392
68.595772899412182
68.616731316083857
68.52649618923715
68.585780458713785
68.591173756906727
68.591521420768487
68.591490823614492
68.591421101097581
68.591334267259583
68.591233132561257
68.591121713359385
68.591005993043026
68.590894383586757
68.590797505205856
68.590727450876003
68.590696582515051
68.590715397282366
68.59079291561666
68.590931392486141
68.591126449868497
68.591367262861269
68.591638766428588
68.59192424311442
68.592207690052177
68.592475585809098
68.592718286389413
68.592930065633581
68.593108878578192
68.593254764124765
68.593369195805209
68.593455888312704
68.593519596269843
68.593572313220065
68.59377685270924
68.595899922246971
68.617246225434883
68.522834054764544
68.585419265300445
68.591134946499707
68.591488629571671
68.591449170450929
68.591364211716567
68.591256397886852
68.591127347967372
68.590980791396717
68.59082323305779
68.590664858473573
68.590519456915317
68.590403662590006
68.590335354526488
68.590331031154008
68.590408486365149
68.590572822592407
68.590816584830279
68.59112180984549
68.591465452475475
68.591823976906085
68.592176011729279
68.592503876695915
68.592795533563489
68.59304505330492
68.593250178094195
68.593412417206579
68.593535604773209
68.59362598815386
68.593690420254902
68.593741699892206
68.593939097484736
68.596022540946763
68.617675998462957
68.519132670698653
68.585090806259856
68.591109350365812
68.591455445166559
68.591405574183113
68.59129709910458
68.591157878392764
68.590986117026659
68.59078481048158
68.590560636569691
68.590325942480348
68.590098901456486
68.589902907570973
68.58976458758913
68.589711107394038
68.589787087046474
68.590006764261304
68.590349913133664
68.590774919203938
68.591237182640938
68.591702315738857
68.592146152299733
68.592549854476417
68.592900444815939
68.593192654241207
68.593424708961891
68.593600100515602
68.593727765068707
68.593817327564111
68.593878412850628
68.593924970925315
68.59411156190356
68.596139167294311
68.61800883914681
68.515387879701805
68.584812848462747
68.591074600108826
68.591372805334416
68.591293187595468
68.591122006684202
68.59090664178315
68.590635947242561
68.590312462439385
68.58994305611283
68.58954355434814
68.589139920168776
68.588768340917355
68.588472500418419
68.588303346711925
68.588390127841492
68.588771007807949
68.589389083963084
68.590127319485418
68.590864921003643
68.591533107644864
68.592118892805715
68.592623053631684
68.593045955660358
68.593385257235468
68.593641155542997
68.593823980682032
68.593949096565439
68.594031060116976
68.594083051107773
68.594120505556759
68.594292018217985
68.596246686175206
68.618229024713401
68.511576525458921
68.584580983775183
68.590939569139323
68.591075943526889
68.590872017237444
68.590500953111544
68.590059560821729
68.589510189867241
68.588859654285571
68.588116018083056
68.587304303755971
68.58647030252753
68.585681965592912
68.585024451241878
68.584604489956504
68.58473143669741
68.585525318218373
68.5868627735383
68.588460060647165
68.589974458965941
68.591179635397324
68.592065594221012
68.592733863254239
68.593249338011589
68.59363847121702
68.593910501665889
68.594090206193727
68.594201869503522
68.594266580785543
68.594301779606994
68.594324595480686
68.594476172661984
68.59633976051272
68.618315394776275
68.507534961881206
68.584230256766787
68.590415131993012
68.590147600759607
68.589537781905364
68.58867652683756
68.587663385585742
68.586446799638125
68.585022252526599
68.583407235931475
68.581647089526157
68.579842122936569
68.578147504879965
68.576763419138359
68.575900340307314
68.576134335672776
68.577698765201959
68.580449792881964
68.583924231353166
68.587375680673816
68.590084955289328
68.591818376770618
68.592863323230759
68.593531303209488
68.593969255808801
68.59424398942636
68.594403456744416
68.594485754239841
68.594520286982942
68.59452903609494
68.594530690867188
68.594657066083144
68.596410206342526
68.618239185411156
68.503141486617423
68.581580600410945
68.589009101683573
68.588306267885415
68.586789979685349
68.585097765799333
68.582951831264367
68.580570736030211
68.577808909410351
68.574669948449326
68.571199238501563
68.567590313108909
68.564207477803492
68.561576103958572
68.560140141773488
68.560255274079921
68.562547704741746
68.567079941196326
68.573431048887485
68.58048642344859
68.586628064833079
68.590695918866189
68.592817233286638
68.593864164940442
68.59438943161922
68.594650117346475
68.59476416071918
68.59479547056516
68.594783854725051
68.594755144597244
68.594728652113304
68.594824429907518
68.596446561898802
68.617961265066583
68.499862864261743
68.56466859981883
68.582895857830081
68.583598647772419
68.580961726078442
68.578314449988298
68.575458656459176
68.572101479769103
68.568195889971761
68.563664386711807
68.558510487068517
68.552899598785487
68.547279610763738
68.542505015468009
68.539698787748748
68.538888915011682
68.540701778561981
68.545763552994259
68.554375542318937
68.565793816554148
68.577586464413557
68.586661175441733
68.591798437620582
68.594048540303845
68.594869952320735
68.595123889133049
68.595162862269646
68.595117251070363
68.595042238046801
68.594965507373161
68.59490483233246
68.594965349915142
68.596433147880475
68.617427751325636
68.499637471726473
68.543798846348594
68.557863787311149
68.563162137396517
68.566373617972829
68.567173522930375
68.566204234284555
68.563825269475828
68.560351087907605
68.555929208737865
68.550657232583774
68.544671705391849
68.538217963238708
68.531731730801098
68.526033129547372
68.522274135997634
68.520951106533346
68.523073123397353
68.52998633004519
68.542603247877238
68.559622989232196
68.576351089841268
68.587850974089179
68.593383383285769
68.595233034380584
68.595615023288602
68.595568513896126
68.595423753242756
68.595271670252686
68.595139768098321
68.595040923863976
68.595061178650155
68.596346999724886
68.616561332892445
68.502963269385774
68.523261311602369
68.527887451043853
68.52936437234078
68.530651440653614
68.531710302772424
68.53308034635053
68.534687998265952
68.536046261888643
68.536584413850548
68.535886467632167
68.533795150159861
68.530355051934905
68.525718871120375
68.520551559531668
68.515552392269328
68.511262448833207
68.50876949936395
68.510123112184743
68.518229463818429
68.535050746022179
68.557737464390897
68.578189574775578
68.590345329166013
68.594962161630377
68.595965849327698
68.595910244989909
68.595669268362244
68.59544057268603
68.595256737366583
68.595123435918538
68.595105159549377
68.596180366291691
68.615221056122834
68.510522539846789
68.510970307128034
68.504068484692013
68.499897170709659
68.498499475763779
68.498049713550543
68.497871570212482
68.497865172724261
68.498026994764984
68.498270350951117
68.498435161284732
68.498340901972213
68.497910222290059
68.497331950814015
68.496742620106303
68.496159489734254
68.495590110035181
68.495236823604088
68.495963547909
68.500152397631481
68.512014181666331
68.534213146086358
68.561606098296096
68.582959140002757
68.593083658889441
68.595844610836792
68.596063463304347
68.595793350337473
68.595516082564018
68.595297807055914
68.595138301587582
68.595078392777069
68.595907996213185
68.613084262840218
68.591663062415762
68.592349611027856
68.592472884545771
68.59252513271322
68.592567187574105
68.592604893226934
68.592643443124715
68.592685076482837
68.592731459741572
68.592783796608629
68.592843497757244
68.592912161935629
68.59299174157438
68.5930848155039
68.593194972673658
68.593327341757515
68.593489444933795
68.593692123880587
68.593948755810317
68.594265834672512
68.594625421754472
68.594959954629388
68.59516804970761
68.595187118254714
68.595051058174278
68.594832499943664
68.594612210023755
68.594483531736159
68.594564868970508
68.595044307239235
68.596439197148541
68.59971621042375
68.605361288229759
68.610472493673399
68.590667359708235
68.592359978091338
68.59250901040518
68.592537216631172
68.59257058642001
68.592603938878412
68.592639933281006
68.592679724458279
68.592724399087373
68.59277516973998
68.592833150669321
68.592899616736332
68.592976135108728
68.59306465796142
68.59316763015832
68.593288052623549
68.59342943595648
68.593595504503256
68.593789045905226
68.594007821662245
68.59423514021374
68.594430587374049
68.594552149696298
68.594556089603103
68.594430902141895
68.594189972816991
68.593883863229848
68.593588593705547
68.593403850131793
68.593528910315428
68.594137302186226
68.595728411577554
68.598738002080097
68.603302555882081
68.589103491971414
68.592289197741906
68.592518668744546
68.592539229077389
68.592567865318898
68.592597277806277
68.592630343032212
68.592667651825636
68.592709954403574
68.592758095103406
68.592812921569191
68.592875340203534
68.59294636728292
68.593027099011607
68.593118594609635
68.593221547464566
68.593335441202029
68.593456656429552
68.593574928916851
68.593670006390354
68.593717753325123
68.59371341494186
68.593699256482822
68.593685745939624
68.593644761679556
68.593546927893911
68.593370925529427
68.593139584598319
68.592923857903571
68.592784746343909
68.592888722012574
68.593527321109363
68.595027197132111
68.599571326854814
68.587285216521465
68.592191855160664
68.592516483471343
68.592535688072061
68.592559588937689
68.592584927953141
68.592614606642897
68.592648799627298
68.592687929745409
68.592732514383115
68.592783045384039
68.592840005860964
68.592903810852434
68.59297468306238
68.593052397618351
68.593135768997968
68.593221648662876
68.593303037108967
68.593365950017841
68.593386326061704
68.593334205464103
68.593196332917415
68.593017437297021
68.592857370018905
68.592731176753489
68.59261864808272
68.592465526983446
68.592271658367764
68.592023798172008
68.591990680033817
68.591780036929407
68.592007153347325
68.592535678059519
68.597981242864208
68.585284862123885
68.59205905124324
68.592499650752572
68.592523340609787
68.592543920509428
68.592565799111625
68.592592176260823
68.59262305453727
68.592658614745488
68.592699114264221
68.592744735316543
68.592795569092672
68.592851506823536
68.592912065648278
68.592976089896695
68.593041238616763
68.593103126260218
68.593153953554165
68.593180578963612
68.593162780406814
68.593074995040766
68.592898664214502
68.592650089888622
68.592387068195507
68.592152366292254
68.591998781824543
68.591869876316991
68.59176501917625
68.59169184635401
68.591580487064093
68.591510318637333
68.591621874444868
68.591683798064651
68.59814968081173
68.583130852780826
68.591896577737714
68.59247149723106
68.592502953531721
68.592521045578721
68.592539917551349
68.592563136033363
68.592590665743643
68.592622483026645
68.592658687011195
68.592699206023951
68.592743825350809
68.592792049066389
68.592842921677402
68.592894747653318
68.59294467479296
68.592988082272171
68.59301775497056
68.593022938615704
68.592988750821476
68.592897436518356
68.592734089377799
68.592498296259819
68.592223387613785
68.59196293727706
68.591749426522966
68.591575948810686
68.591436358346471
68.59132323423492
68.591305900842798
68.591348165164334
68.591523338317828
68.592069261998702
68.598995660332804
68.580844088449126
68.591707051417714
68.592433345989406
68.592474989208782
68.592491249315998
68.592507495105551
68.592527722401073
68.592551896678515
68.592580077067126
68.592612053255735
68.592647625265244
68.592686386543051
68.592727609847671
68.592770088908409
68.592811914762294
68.59285017519467
68.592880575038194
68.592897015876403
68.592891258737893
68.592853007863184
68.592771023898536
68.592635854031911
68.592444791259041
68.592216437001341
68.591983134357463
68.591769655064454
68.591593880773132
68.591467770031244
68.591392457387485
68.591390901990181
68.591445544807172
68.591608670694484
68.592433637141099
68.600245990260703
68.578440353618902
68.591493342578104
68.592386622485975
68.592440205108943
68.592455080994867
68.592468982454051
68.592486442809331
68.592507479903247
68.592532074419026
68.592560010480767
68.592590995899442
68.592624523585101
68.592659765572122
68.592695441624357
68.592729656692171
68.592759703217936
68.592781856346306
68.592791206992075
68.59278165514317
68.59274626484013
68.592678155470281
68.592572160838984
68.592427370774061
68.592253348342012
68.592071914032886
68.591897065473574
68.591747041315159
68.591636985266433
68.591574386232736
68.591569391342333
68.591612591462066
68.591761729152935
68.592782336836493
68.601556238652464
68.575931248092175
68.591257735327076
68.592332435585718
68.592399361145851
68.59241315246544
68.592424890151875
68.592439716207537
68.592457792932848
68.592479005926918
68.592503202091606
68.592530083521098
68.592559131365434
68.592589522714803
68.592620030088852
68.592648909335509
68.592673781756901
68.592691543183349
68.592698346432115
68.592689734079272
68.592661019715194
68.592608045094011
68.592528450531461
68.592423682090285
68.592290650043807
68.592159731883214
68.592029518780436
68.591913752642085
68.591826593764964
68.59177612216493
68.591763623896952
68.591788850680445
68.5919263156824
68.593095933073982
68.60284172497434
68.573325828216696
68.591002139131362
68.592271570666853
68.592353160719483
68.592366076101669
68.592375755378356
68.592388094689525
68.592403289726718
68.592421324475481
68.592442108422972
68.592465396917973
68.592490732397749
68.592517376551456
68.592544235870619
68.592569787625777
68.59259201908867
68.592608400197619
68.592615932951801
68.592611318299802
68.592591298324876
68.5925532043602
68.592495697282317
68.592419532177317
68.592327358687612
68.592232590710481
68.592138973429442
68.592053900884594
68.591987037837882
68.591945494156349
68.591929867729505
68.591944248789957
68.592079410835353
68.593376257283651
68.604084327804841
68.57063158842
68.590728403341117
68.592205262885798
68.592302312073642
68.592314425384401
68.592322092398732
68.592331954675743
68.592344342664845
68.592359365022006
68.592377025898699
68.592397185103934
68.592419503912652
68.592443386930952
68.592467924262763
68.592491843889874
68.59251348104948
68.59253078611934
68.592541393679909
68.592542790561026
68.592532598735332
68.592508967488556
68.592471058462138
68.592419549131066
68.592357372146381
68.592291710088546
68.59222687052447
68.592166847520332
68.592118113461453
68.592085369673327
68.592070829186341
68.59208035305997
68.592218524425036
68.593630470425865
68.605280075001644
68.567854893281933
68.59043808527025
68.592133954852429
68.592247315402176
68.592258769187239
68.592264334483886
68.59227164654861
68.592281234396594
68.592293328057508
68.592308066411022
68.592325456965611
68.592345323969738
68.592367256457237
68.592390559810354
68.59241421962804
68.592436882142678
68.592456878493493
68.592472281141667
68.592481078637036
68.592481411261161
68.592471848948847
68.592451719167414
68.592421509709993
68.592383262419489