/*--------------------------------*- C++ -*----------------------------------*\
  =========                 |
  \\      /  F ield         | OpenFOAM: The Open Source CFD Toolbox
   \\    /   O peration     | Website:  https://openfoam.org
    \\  /    A nd           | Version:  12
     \\/     M anipulation  |
\*---------------------------------------------------------------------------*/
FoamFile
{
    format      ascii;
    class       surfaceScalarField;
    location    "10";
    object      phi;
}
// * * * * * * * * * * * * * * * * * * * * * * * * * * * * * * * * * * * * * //

dimensions      [1 0 -1 0 0 0 0];

internalField   nonuniform List<scalar> 
114444
(
-2.1386441663955854e-05
2.3031912793022699e-05
-1.6465879218256913e-06
-1.8560820961390369e-05
-1.9801519526116843e-06
-8.4679382324024578e-07
-1.5104744164515233e-05
-2.9757111446058004e-06
-4.8169916520213437e-07
-1.3190656790404827e-05
-1.6231729298945741e-06
-2.9224987591193252e-07
-1.2109685804329577e-05
-9.0082810430225016e-07
-1.8147876150889399e-07
-1.1522049168833621e-05
-4.7147363030992561e-07
-1.1749922427939463e-07
-1.123733170828213e-05
-2.0707556826870229e-07
-7.8978007720053847e-08
-1.1156636385598816e-05
-2.6622272450678242e-08
-5.5409648091121725e-08
-1.1226884810061054e-05
1.0961546307381777e-07
-4.0703974830318946e-08
-1.1423939612442503e-05
2.2820838262102914e-07
-3.2490854794560933e-08
-1.1742312713907048e-05
3.4563880229325653e-07
-2.8603406836430601e-08
-1.2191236409319342e-05
4.7616492884774332e-07
-2.8579295518489373e-08
-1.279593549770358e-05
6.3668272246867993e-07
-3.3322046662242347e-08
-1.3601574061062194e-05
8.4986092440458574e-07
-4.5560796257251239e-08
-1.468265435484826e-05
1.1506985885784261e-06
-7.0957037218838181e-08
-1.6160136122684594e-05
1.598437102819001e-06
-1.222982857979899e-07
-1.8232277635421012e-05
2.2986224780826602e-06
-2.2786558648997065e-07
-2.1230539664771826e-05
3.4407082850983238e-06
-4.4415436115041951e-07
-2.5720096888879153e-05
5.3351967637660595e-06
-8.4929938558799138e-07
-3.2626013856021788e-05
8.3215842688777322e-06
-1.4277016982909229e-06
-4.3068431201110342e-05
1.2272248902239858e-05
-1.8643108914004682e-06
-5.7328784230336572e-05
1.5907837051714246e-05
-1.7129565577745487e-06
-7.3765433670640356e-05
1.7420096075431376e-05
-1.0613360841469538e-06
-8.9777281640437878e-05
1.6498987443451974e-05
-5.4890555193893461e-07
-0.0001037262071687421
1.4488858107560312e-05
-5.767894852826945e-07
-0.0001152941888180478
1.2526719534750928e-05
-9.7720012338903129e-07
-0.00012456838790980227
1.0800561424432412e-05
-1.5340422390997238e-06
-0.00013139687185184889
8.9414718172898288e-06
-2.1143618507414866e-06
-0.00013516844724528537
6.4325466212010935e-06
-2.6583569161393566e-06
-0.00013457962639072194
2.5224754979834734e-06
-3.1060595753182614e-06
-0.00012790212099395476
-3.1448407081432369e-06
-3.5257844470343669e-06
-0.00011220813667288352
-1.1658091775048264e-05
-4.0294990734262402e-06
-7.8061300147761473e-05
-2.9440521759933909e-05
-4.7009128327484435e-06
-7.219624333351413e-05
-5.8609432259371789e-06
-1.4772495822394967e-05
3.9324076984542241e-05
-1.5208114380590832e-06
-1.5641368933069626e-05
-3.0289639588735801e-07
-8.0973384331264706e-07
-1.4856401451235569e-05
-3.2938583633508137e-06
-4.6815426122464628e-07
-1.4050151308159713e-05
-2.1443130905890667e-06
-2.8644439449940424e-07
-1.3452921420908624e-05
-1.3163464339276681e-06
-1.8304640249032523e-07
-1.3068919008291529e-05
-7.3546978425442219e-07
-1.2134146187656047e-07
-1.2861644433348315e-05
-3.3160365825905726e-07
-8.4081958840213609e-08
-1.2798686983609441e-05
-3.0162171282468144e-08
-6.0753629226453167e-08
-1.2859152739094505e-05
2.1477895756535785e-07
-4.6034570425920456e-08
-1.3032595590447707e-05
4.3688449778823852e-07
-3.6570745546500329e-08
-1.3319142563108651e-05
6.622771666976722e-07
-3.1429627462316778e-08
-1.3728888293327295e-05
9.1484874976743306e-07
-3.0276873672728863e-08
-1.4282304395036647e-05
1.2224924597513462e-06
-3.373276624289397e-08
-1.5012165421208664e-05
1.6220932909232309e-06
-4.3710322768560979e-08
-1.5965744156460347e-05
2.167336079297033e-06
-6.4397936593110944e-08
-1.7206000486839367e-05
2.9415901161936623e-06
-1.0423838309951734e-07
-1.8808049549777632e-05
4.0786608054679955e-06
-1.7934921997409835e-07
-2.0843451325064872e-05
5.7918851944716642e-06
-3.1726193516530663e-07
-2.335186699511024e-05
8.3881712885222539e-06
-5.467910912839341e-07
-2.6379796414518026e-05
1.2168762235785104e-05
-8.2487965344054737e-07
-3.0279985278960185e-05
1.7043024353475551e-05
-8.8713654627807653e-07
-3.6045932844924595e-05
2.1939640964878231e-05
-3.0409935597222052e-07
-4.4523380992912878e-05
2.4960794404340088e-05
8.767980999577427e-07
-5.5115216052161035e-05
2.4877215543185933e-05
2.1504819783209629e-06
-6.5913446891964885e-05
2.2312964520346681e-05
2.9262587590613365e-06
-7.5203561363090267e-05
1.8639961562165421e-05
3.1491896365922992e-06
-8.2087569699361093e-05
1.4688900344131517e-05
2.984595706787487e-06
-8.6191163551373171e-05
1.0454163946648062e-05
2.5915541649023205e-06
-8.709615354964924e-05
5.2514655197804058e-06
2.0946925352385268e-06
-8.4633510594227436e-05
-1.5048946923468856e-06
1.5788607989398654e-06
-7.9141817270515633e-05
-1.0115441526726422e-05
1.4923289245337955e-06
-6.9015815764322401e-05
-2.3191792418526066e-05
1.4177119304922744e-06
-4.7852672176120749e-05
-5.1463631984145197e-05
8.6662632906752398e-07
-0.00011946827291839521
-5.7707991705384519e-07
-1.197227244694826e-05
5.2746099284794808e-05
-1.4508788236749695e-06
-1.3630071300336969e-05
2.094066813228805e-06
-7.4050090850880915e-07
-1.3590608547988895e-05
-2.9216806043438402e-06
-4.1297351660602451e-07
-1.3229869539743785e-05
-2.2471231027377316e-06
-2.592633590920689e-07
-1.2937050546250303e-05
-1.4446288987260054e-06
-1.6587143548007941e-07
-1.273924891590213e-05
-8.2301180184437012e-07
-1.1159479041900991e-07
-1.2641276438128258e-05
-3.5200639007090621e-07
-7.8904986319073215e-08
-1.2639094804427509e-05
2.4625146847705045e-08
-5.8304790405086933e-08
-1.2726096458481056e-05
3.4528499843046951e-07
-4.4840982821706681e-08
-1.2900676865790378e-05
6.4655405631898453e-07
-3.6426546455705426e-08
-1.3164342782474007e-05
9.5659063548322075e-07
-3.1985880645262434e-08
-1.3523809062958215e-05
1.3041492141700918e-06
-3.1173123534519513e-08
-1.3990925072565238e-05
1.722675137099048e-06
-3.440622204721162e-08
-1.4581590249448833e-05
2.2544834498801398e-06
-4.3064992046300084e-08
-1.5312912912863531e-05
2.9572985559245932e-06
-5.9980391246839735e-08
-1.6195243095031274e-05
3.9127740337521663e-06
-9.019594820223795e-08
-1.7213673103635644e-05
5.2375232343565717e-06
-1.417808280503451e-07
-1.8292118274619882e-05
7.0939052414857554e-06
-2.2495768798557127e-07
-1.9248982016325122e-05
9.686743990410205e-06
-3.4329754887541825e-07
-1.9821101083384453e-05
1.3200725344432632e-05
-4.6246444895295602e-07
-1.9933306133022771e-05
1.7596012609110583e-05
-4.473243247594072e-07
-2.0186393230233196e-05
2.2255830044117186e-05
-7.9908157584898369e-08
-2.1853234046251749e-05
2.584999970218361e-05
7.4446332579041883e-07
-2.5722457443909987e-05
2.6963525072363748e-05
1.7370842539601534e-06
-3.1116187903134199e-05
2.5201486701737528e-05
2.4595964582408282e-06
-3.6484179377993055e-05
2.1282322611978883e-05
2.6910740436498271e-06
-4.0473938005776354e-05
1.6148437310285069e-05
2.5106540661150537e-06
-4.2051451223741701e-05
9.9362947862554164e-06
2.0901906267297621e-06
-4.0728730847879849e-05
2.3366309102037342e-06
1.5990409743724029e-06
-3.7539675347126537e-05
-6.1208007853364776e-06
1.4425867450134054e-06
-3.5365626433678291e-05
-1.3890339033389429e-05
1.6150201912900487e-06
-3.2478740086484965e-05
-2.7424274730054397e-05
1.355983860255936e-06
-2.664315858016685e-05
-5.8341609033752388e-05
1.0485668760679464e-06
-0.00014613190255348377
2.3419643620447653e-08
-1.0403128328207908e-05
6.4512884408838179e-05
-1.3647890653425364e-06
-1.2140088682293507e-05
4.4575300346102301e-06
-6.278551579681627e-07
-1.2374288430596305e-05
-2.3272129347262732e-06
-3.6159896452099341e-07
-1.2335288764447217e-05
-2.06130852240012e-06
-2.2614838215158637e-07
-1.2280557009060327e-05
-1.3544703601111226e-06
-1.4622526983627332e-07
-1.2244317682240052e-05
-7.6079844311584229e-07
-9.9787859603490022e-08
-1.2249270573683073e-05
-2.7649479335837395e-07
-7.1893833752661828e-08
-1.2304622052649799e-05
1.3252168139236962e-07
-5.3880876178056938e-08
-1.2415324531426823e-05
4.9721091519123227e-07
-4.2560178152106884e-08
-1.2582768959578705e-05
8.4803762780754013e-07
-3.5376561745151079e-08
-1.2808539933350735e-05
1.2125674185771259e-06
-3.1544081475311344e-08
-1.3095301939711724e-05
1.6204045884085476e-06
-3.0832516337534305e-08
-1.3445401963418303e-05
2.1049300354914893e-06
-3.3494810286672367e-08
-1.3858867629959226e-05
2.707034745462545e-06
-4.0426461035356703e-08
-1.4328362629016229e-05
3.4788223613005986e-06
-5.3371096635285337e-08
-1.4829259155905255e-05
4.4874445678165567e-06
-7.5117814421412217e-08
-1.5301873165510288e-05
5.8182330780810962e-06
-1.0944213420820438e-07
-1.5623254053580954e-05
7.5736085034803031e-06
-1.5967712377929046e-07
-1.557527408240199e-05
9.8604412813742418e-06
-2.2307667680672347e-07
-1.4849878293132778e-05
1.2749920016207939e-05
-2.7623094065533944e-07
-1.3191448767761978e-05
1.6184348864101168e-05
-2.4945901641472654e-07
-1.0725470742556324e-05
1.9823841824320122e-05
-4.0092610085668954e-08
-8.248514028196252e-06
2.2914284778204488e-05
4.4517527447330473e-07
-6.8143451261420844e-06
2.440681544210704e-05
1.0991658485723061e-06
-6.746849489346958e-06
2.3429216944703046e-05
1.6752951211782001e-06
-7.2857759777607815e-06
1.9820010861121752e-05
1.9730293915268524e-06
-7.3892820339052089e-06
1.4253805478056126e-05
1.9769459892853624e-06
-6.5132544612671913e-06
7.2731875399081022e-06
1.7753498131371227e-06
-5.2520468112086102e-06
-4.4960322767646561e-07
1.5233749274484805e-06
-3.6090682654212543e-06
-8.726618752300057e-06
9.6962736702217115e-07
-2.7595178826175017e-06
-1.5770521680789431e-05
1.0379001335676878e-06
-6.1572007511158944e-06
-2.4504628330050758e-05
4.8444615428396028e-07
-1.1616708520297561e-05
-5.3282533339833048e-05
4.0402711696013643e-07
-0.00015768845436469001
-5.775968889673229e-08
-9.3475961157356927e-06
7.5144221482871225e-05
-1.2848683454823855e-06
-1.1112765601385096e-05
6.7730949888519301e-06
-5.5174817591525086e-07
-1.1453948335648264e-05
-1.6708642481545008e-06
-3.1649391903257961e-07
-1.1577412349818081e-05
-1.7410639467771739e-06
-1.9811409193638932e-07
-1.1666347195000487e-05
-1.1376138478689112e-06
-1.2925642797793958e-07
-1.1742491110596979e-05
-5.9664572824211495e-07
-8.9344042492818714e-08
-1.1824887894050964e-05
-1.2982142456778891e-07
-6.561183324348675e-08
-1.1925700128041351e-05
2.8223874036481248e-07
-5.0240731787456504e-08
-1.2051753262813831e-05
6.6232743099418298e-07
-4.0399894044186847e-08
-1.2205416570241044e-05
1.0346201295128518e-06
-3.4256294991449074e-08
-1.2387208767192303e-05
1.424028974544953e-06
-3.1007015051162811e-08
-1.2595168314246233e-05
1.8573920486452104e-06
-3.0366207953273992e-08
-1.2824010298124761e-05
2.3648896935975773e-06
-3.2457346377937738e-08
-1.3062397654469914e-05
2.9819075646576331e-06
-3.7826725751010467e-08
-1.3287796921866271e-05
3.7503528479110041e-06
-4.7474244649842166e-08
-1.3458199060803311e-05
4.7193606224157371e-06
-6.2858756009786508e-08
-1.3499456402361907e-05
5.9437867170660666e-06
-8.5642608276190434e-08
-1.328878182359743e-05
7.4782101386470391e-06
-1.1662467474660978e-07
-1.2639476317024636e-05
9.3625517714687823e-06
-1.5277323030622912e-07
-1.130462936383166e-05
1.1594401858137483e-05
-1.8073141868300987e-07
-9.0405596720247958e-06
1.4085075599639677e-05
-1.6641459799381787e-07
-5.7727096267051903e-06
1.6606601506892953e-05
-5.3048829291960864e-08
-1.8066770436498984e-06
1.873884110711518e-05
2.0468992657475726e-07
2.1388453530538593e-06
1.9855325567409683e-05
5.9679202265301255e-07
5.4065092894903888e-06
1.9098891055169282e-05
1.0488147810068459e-06
7.7199266789405259e-06
1.6158302576543898e-05
1.3330024467396429e-06
9.3022565624194283e-06
1.128225226672009e-05
1.3763567158130526e-06
1.0386270895810572e-05
4.9749194279524359e-06
1.2065578566375689e-06
1.148301313818252e-05
-2.4826645616010178e-06
9.3554583435072396e-07
1.1577090619891702e-05
-9.4274440005507706e-06
6.0733524444485179e-07
1.1217616357923307e-05
-1.5758817776915525e-05
3.4901567391911769e-07
7.5056677379664309e-06
-2.1027897560773142e-05
2.3596192575276503e-07
-9.3704701812570411e-07
-4.4646424627552825e-05
-1.9391741641908565e-07
-0.00015843271175133158
-1.9092840933581217e-07
-8.5868554533703101e-06
8.4941803991469143e-05
-1.2118469132402673e-06
-1.0322250465769116e-05
8.9958576662771704e-06
-4.8871819381127366e-07
-1.0711794038943802e-05
-1.0045562339982167e-06
-2.7808869909335692e-07
-1.093115868367577e-05
-1.3494051199721215e-06
-1.7362732587363109e-07
-1.1110100079992457e-05
-8.4575873326026075e-07
-1.1424910647757239e-07
-1.1262493137374055e-05
-3.6583207234865569e-07
-7.9756701900200059e-08
-1.1400070976258158e-05
6.5907859802783061e-08
-5.9487570906267865e-08
-1.153326498627042e-05
4.6061151834943465e-07
-4.651535646433086e-08
-1.1667299203851797e-05
8.3302161449572175e-07
-3.7996848603167123e-08
-1.180373226086852e-05
1.2025027097607295e-06
-3.278637556624452e-08
-1.1940766993250641e-05
1.5898001324554092e-06
-3.0073544026701405e-08
-1.2072959928439553e-05
2.0177851329179972e-06
-2.9538052074863941e-08
-1.2189898405014451e-05
2.5116887047164049e-06
-3.1200081327699892e-08
-1.2273763733237271e-05
3.0997835553015578e-06
-3.5352284828040036e-08
-1.2295233632312749e-05
3.8129981770518801e-06
-4.2519278392785067e-08
-1.2207681778241432e-05
4.6838999456092236e-06
-5.343655400510798e-08
-1.1939697220065908e-05
5.7432478368702042e-06
-6.8791824470300759e-08
-1.1387140686224234e-05
7.0129003712538871e-06
-8.8593691037934235e-08
-1.0408788617565152e-05
8.4935822639352277e-06
-1.1073145044335157e-07
-8.8338555551116517e-06
1.01464007422994e-05
-1.2828886646711065e-07
-6.4963771456174334e-06
1.1871951842124364e-05
-1.2574723608559763e-07
-3.3057785405672099e-06
1.3489245748268085e-05
-7.4783458153572231e-08
6.6328418318078973e-07
1.4721427567258901e-05
4.631416188899913e-08
5.0647577237776629e-06
1.518250230622416e-05
2.6800833230998787e-07
9.2398721381027838e-06
1.435697197308542e-05
5.6157235629293273e-07
1.2689667984188523e-05
1.1918215939899391e-05
7.8391677347759221e-07
1.5173615847767453e-05
7.9073526914458192e-06
8.8516193519246198e-07
1.6594857594061931e-05
2.6873477511949601e-06
8.6268477983519478e-07
1.6293626433225213e-05
-2.9862722679159895e-06
8.0339399858112415e-07
1.4574757525385144e-05
-8.3232063259313815e-06
6.1352801845360671e-07
1.1803794191905557e-05
-1.3395370016630555e-05
4.066891869450874e-07
8.3244463044222287e-06
-1.7716790488439064e-05
1.6745497287284788e-07
2.5163295370751922e-06
-3.8499976737119406e-05
-3.3966102509546482e-07
-0.00015571528101620391
-1.998008302487205e-07
-8.0144206162818368e-06
9.4099593960258576e-05
-1.14447807659847e-06
-9.7058425580514987e-06
1.111900679777987e-05
-4.330726894339091e-07
-1.0114568241010344e-05
-3.5126589337668982e-07
-2.458846991898532e-07
-1.0385759365143519e-05
-9.2724024731058896e-07
-1.5230656080613468e-07
-1.0618581914312119e-05
-5.1316519354533333e-07
-1.0110710553342221e-07
-1.0820112485712881e-05
-9.4516081706443954e-08
-7.1122511998153307e-08
-1.0995600766918161e-05
2.9391169873711394e-07
-5.3852493647832245e-08
-1.1150231544274542e-05
6.5642331737473792e-07
-4.2518100606704748e-08
-1.1286892027438032e-05
1.0036653389773952e-06
-3.5320247810159476e-08
-1.1405044488368544e-05
1.3503275943418332e-06
-3.1009015694324869e-08
-1.1500820033586233e-05
1.7130500678268659e-06
-2.8811127475315973e-08
-1.1566170404680315e-05
2.1102390229353785e-06
-2.8441229822371742e-08
-1.1587892275759038e-05
2.5619195140424895e-06
-2.9848488538190501e-08
-1.1545444463768189e-05
3.0891072248545975e-06
-3.3113143324859962e-08
-1.1408572336374859e-05
3.7133081561089615e-06
-3.8525684472464068e-08
-1.1133555134178211e-05
4.4539460275719455e-06
-4.6407917233217761e-08
-1.0659519416120181e-05
5.3248761490959606e-06
-5.7009157038954567e-08
-9.9058960267520688e-06
6.328083846478547e-06
-7.0152642172096281e-08
-8.7736083286222633e-06
7.4445142330842068e-06
-8.4566528906329516e-08
-7.1548448888481213e-06
8.6231599296467525e-06
-9.6871880975002642e-08
-4.9536947570704867e-06
9.7697411900173417e-06
-1.0029482568752091e-07
-2.1192970939448696e-06
1.073764281507554e-05
-8.4171575010712824e-08
1.3077344008408653e-06
1.1326044894135702e-05
-3.3104702219398052e-08
5.1138992480323178e-06
1.1290926051879374e-05
8.3704927165063793e-08
8.8809418799330999e-06
1.034665329244026e-05
2.4110151276693247e-07
1.2112026245348124e-05
8.3069521815002334e-06
3.7760200152263802e-07
1.4367453553125746e-05
5.1828167813651368e-06
4.6661701720713361e-07
1.535461882087824e-05
1.2215831806824009e-06
4.7674744901289739e-07
1.5016844427515091e-05
-3.0459935335614984e-06
3.9607452175925324e-07
1.334577949964528e-05
-6.9474848429411381e-06
2.9401743105342267e-07
1.0524849638221665e-05
-1.0746353738082256e-05
1.7066377587320487e-07
7.1698021832139973e-06
-1.4391233572791494e-05
2.8283447721059765e-08
3.2846765219722409e-06
-3.4385567493898774e-05
-2.3095616078987404e-07
-0.00015224305039274831
-1.8602925168074377e-07
-7.5642825979757676e-06
0.00010274513999688349
-1.0823577274009906e-06
-9.2097798468714659e-06
1.3148222018887462e-05
-3.8505643300516464e-07
-9.6245650038636191e-06
2.8123089855590911e-07
-2.1902668275181226e-07
-9.9244522485288027e-06
-4.9466220013738631e-07
-1.3402352151512223e-07
-1.0190217278868263e-05
-1.5900064918909074e-07
-8.9736316067986317e-08
-1.0423855080465151e-05
2.0115262354657354e-07
-6.3368684593836517e-08
-1.062482094786174e-05
5.4185829978566645e-07
-4.8318121390095093e-08
-1.0793742046907531e-05
8.6249962632445461e-07
-3.8492616661763888e-08
-1.0930407242592008e-05
1.1715259889650257e-06
-3.2532522795675193e-08
-1.103217032510008e-05
1.4797604479397665e-06
-2.9006579445922091e-08
-1.1093169509718794e-05
1.8000117209433295e-06
-2.729971854373207e-08
-1.1103755125570724e-05
2.1465778708502694e-06
-2.7091601767212533e-08
-1.1049498170555027e-05
2.5346311450239368e-06
-2.8308806104387672e-08
-1.0910234921133896e-05
2.9795224662689313e-06
-3.1020495871079873e-08
-1.0657909972888292e-05
3.494896486461483e-06
-3.525660279059969e-08
-1.0255140068430825e-05
4.0909581613597726e-06
-4.1125970825024236e-08
-9.6540124000755895e-06
4.7710994969590825e-06
-4.8695290838526341e-08
-8.7962065405345923e-06
5.5266881607629939e-06
-5.7755199099049211e-08
-7.6168416741483483e-06
6.3313821563594631e-06
-6.7578945144721162e-08
-6.0529908177048385e-06
7.134463689191182e-06
-7.6502242943196052e-08
-4.0581335327032561e-06
7.8550701813499759e-06
-8.1535650462031774e-08
-1.6225463796586629e-06
8.3792633507490505e-06
-7.8560434352908558e-08
1.1991466601557629e-06
8.5636132948863884e-06
-6.0624339189865148e-08
4.2447682786936208e-06
8.2493978555978711e-06
-5.4897091669453993e-09
7.2388961706252447e-06
7.2820636612283994e-06
6.8993244640645587e-08
9.8248364411304828e-06
5.5843892171421851e-06
1.3507623001712838e-07
1.1661551180860868e-05
3.156632781283716e-06
1.8792991856956047e-07
1.2476328929955266e-05
2.0666561330780709e-07
1.9872499040567946e-07
1.2160411554786324e-05
-2.9148040505796523e-06
1.833691531161048e-07
1.0815799633579938e-05
-5.7324192160138886e-06
1.2820967733973909e-07
8.5659373102972794e-06
-8.558783649884086e-06
6.0974006880316229e-08
5.8906773720133381e-06
-1.1678687922817962e-05
-3.8610682589056482e-08
3.4341741776425362e-06
-3.1759257295391826e-05
-1.7151804555196192e-07
-0.00014865627705828158
-1.5112294072680569e-07
-7.1965548050314725e-06
0.00011096578082838533
-1.0251619997133439e-06
-8.7971710042254561e-06
1.5091347327100927e-05
-3.4383865223954681e-07
-9.2159873132930526e-06
8.9591822907366066e-07
-1.9718111634138339e-07
-9.5336303092049322e-06
-5.9858542041097258e-08
-1.1849315544218874e-07
-9.8208522790737932e-06
2.0685473174081998e-07
-7.9970438986906087e-08
-1.0077647467823669e-05
5.1321800543044679e-07
-5.6608103810356854e-08
-1.0297040858229523e-05
8.0302456417199018e-07
-4.3110236334751764e-08
-1.0476721776381243e-05
1.075492130010122e-06
-3.4648872271345582e-08
-1.0613664227715992e-05
1.3367387016146956e-06
-2.9607605836038108e-08
-1.070290345035413e-05
1.5943849273913705e-06
-2.672282404119028e-08
-1.0737293961673606e-05
1.8585022078547671e-06
-2.5438373794451374e-08
-1.0706390243833602e-05
2.1398019558029591e-06
-2.5467502727744639e-08
-1.0595827977260387e-05
2.4493899555772524e-06
-2.6662392742816786e-08
-1.0386956569977295e-05
2.7983124737414496e-06
-2.9003800157142636e-08
-1.0055486309596995e-05
3.1945563065564625e-06
-3.2473128657800549e-08
-9.5716830850534009e-06
3.6428926462674452e-06
-3.7081128385765817e-08
-8.8999650290924448e-06
4.1407511970272102e-06
-4.271355114539705e-08
-8.0007717547005034e-06
4.6753533955907002e-06
-4.9202909686289461e-08
-6.8345052874648226e-06
5.2198919227162001e-06
-5.6121212914706325e-08
-5.3684957684517966e-06
5.7296976487969524e-06
-6.2589305950179657e-08
-3.5875240268339307e-06
6.1399640212913644e-06
-6.7212004348522143e-08
-1.507199090124674e-06
6.365984370421052e-06
-6.8392624682902336e-08
8.1048902828473724e-07
6.3083239711684808e-06
-6.3746072243052627e-08
3.2320813422646667e-06
5.8640960077848141e-06
-3.7641305001277029e-08
5.5632809814442011e-06
4.9530948426262138e-06
-3.5892779714872522e-09
7.5661100495375057e-06
3.5570148301834044e-06
2.3178235368964848e-08
9.0043672180485435e-06
1.667498190056148e-06
4.9513064189333386e-08
9.6768623636202327e-06
-5.1947701007516994e-07
5.2302694990976162e-08
9.5408867533331365e-06
-2.8306699518433515e-06
5.0502265774582778e-08
8.6332439166365599e-06
-4.8536322525672623e-06
2.7521593200965203e-08
7.0236948895819851e-06
-6.9525286173417768e-06
1.9616189613207763e-09
5.0722030267267527e-06
-9.6757735030051736e-06
-5.2794639151681e-08
3.4662306722250442e-06
-3.0047108121304081e-05
-1.0784740940324131e-07
-0.0001450638702226335
-1.249087864969265e-07
-6.8884457733084791e-06
0.00011882552289653296
-9.7235134258317826e-07
-8.449180162474032e-06
1.6958595268093128e-05
-3.0783316435262174e-07
-8.8700123487093504e-06
1.4927388038833075e-06
-1.7729424869052791e-07
-9.2019383907729037e-06
3.7636254979770011e-07
-1.0562695070621043e-07
-9.5077119998316522e-06
5.829746578082734e-07
-7.1683350650250498e-08
-9.7826753535812105e-06
8.3711296795756347e-07
-5.0269270206909653e-08
-1.0018077480434117e-05
1.0752874830965631e-06
-3.8197749863421809e-08
-1.0208459111704106e-05
1.2955046924072674e-06
-3.0968121274040575e-08
-1.0348216459901058e-05
1.5018460495519635e-06
-2.6687753756495003e-08
-1.0430855218640961e-05
1.7000420247216217e-06
-2.4356810353171674e-08
-1.0447892881558959e-05
1.8976121869404008e-06
-2.3412048032233591e-08
-1.0388679901753199e-05
2.1028509541134905e-06
-2.3603042963447458e-08
-1.0239817538356197e-05
2.3240176215087932e-06
-2.4832160105848723e-08
-9.9845055545526952e-06
2.5686478500237309e-06
-2.6989746903837297e-08
-9.6030505447660225e-06
2.8417960686360216e-06
-3.0037119162087683e-08
-9.0727198302057135e-06
3.1451024394187721e-06
-3.3882847619729929e-08
-8.3685439881473171e-06
3.47357672951435e-06
-3.834409648589413e-08
-7.4655711203628778e-06
3.8142518719206834e-06
-4.3214659459697599e-08
-6.3421294287996595e-06
4.143305159572914e-06
-4.8198360899043849e-08
-4.9853016781027958e-06
4.4243592663927834e-06
-5.2833186508015402e-08
-3.3983007618045452e-06
4.6079739779500522e-06
-5.635517959683636e-08
-1.609451751158166e-06
4.6335858282666737e-06
-5.7795285454414042e-08
3.1845243386458345e-07
4.4346884274840977e-06
-5.561277473120062e-08
2.2880133642826241e-06
3.9415058521756246e-06
-4.8314438763091313e-08
4.1460299268797878e-06
3.1215422857082475e-06
-2.7807961367131e-08
5.7372067486694595e-06
1.9810655176258033e-06
-1.6571772784636263e-08
6.9059917591213526e-06
4.9966628816004535e-07
-2.2955798180873678e-09
7.5088715099559259e-06
-1.1179795915221716e-06
-5.7159207876588368e-09
7.5295414242710836e-06
-2.8571665837325077e-06
4.4902868798215788e-09
6.9874586402998635e-06
-4.3095455862158672e-06
-3.3386924203315243e-09
5.9223977034057314e-06
-5.8772694986538007e-06
-1.1537022692366855e-08
4.6224825104796676e-06
-8.336355110262689e-06
-4.0904503446368799e-08
3.4712697784836719e-06
-2.884270755834193e-05
-5.4834076388791985e-08
-0.00014147955556101662
-1.1203944300968331e-07
-6.624621842142899e-06
0.00012637278723229278
-9.2367392617978498e-07
-8.149860195796196e-06
1.8759140214878168e-05
-2.7661484469909555e-07
-8.5757201465564726e-06
2.0779167935489289e-06
-1.6061957652645759e-07
-8.9227190692679984e-06
8.1674847243212245e-07
-9.4718653037248156e-08
-9.2459576914954584e-06
9.6866906781009814e-07
-6.379290434339706e-08
-9.5396043090667423e-06
1.1737495702105973e-06
-4.4327641126085076e-08
-9.7920787242808415e-06
1.3601586232351453e-06
-3.3733599642838533e-08
-9.9956733312335056e-06
1.525162540547475e-06
-2.7400600728984142e-08
-1.0142870918487043e-05
1.6714276939232725e-06
-2.372229091852204e-08
-1.02258673353047e-05
1.8035348299969491e-06
-2.1835730211001235e-08
-1.0235360622979786e-05
1.9269989615378997e-06
-2.1234220722152568e-08
-1.0160483185008302e-05
2.0482979490485901e-06
-2.166610828067179e-08
-9.9889222973923076e-06
2.174094258024421e-06
-2.297957079138496e-08
-9.7062144273136854e-06
2.3096609883003554e-06
-2.5062674030801969e-08
-9.2969171232349257e-06
2.4590616306355663e-06
-2.790419955152493e-08
-8.7440610997476466e-06
2.622206221098676e-06
-3.1300961464440421e-08
-8.0313782650193387e-06
2.7946584223811054e-06
-3.5105867714242173e-08
-7.1446634629873433e-06
2.9652177196082984e-06
-3.9022478330290211e-08
-6.0747256564013534e-06
3.1147955762237432e-06
-4.2770404163362508e-08
-4.8211508000669875e-06
3.215522167628227e-06
-4.608053369287143e-08
-3.3971960838691589e-06
3.2312389559266359e-06
-4.8562528959518715e-08
-1.8351213778932381e-06
3.1198935562802018e-06
-4.9725314486646591e-08
-1.8996046283529934e-07
2.8373047199477411e-06
-4.9120319697694247e-08
1.4524346893525525e-06
2.3437715014053817e-06
-4.6004046803526484e-08
2.9878980934276212e-06
1.6172769971788583e-06
-3.2540861680915869e-08
4.308547024685573e-06
6.8539793373583155e-07
-2.632314635470411e-08
5.3083081574636145e-06
-4.8425290462241433e-07
-1.7181738000663059e-08
5.8950172143907595e-06
-1.6895810244171223e-06
-1.6445925964061173e-08
6.0474785271543377e-06
-3.0023457241186379e-06
-8.6194960886336188e-09
5.8031619190573189e-06
-4.0548163144670737e-06
-1.1749097654838195e-08
5.1653635269062284e-06
-5.2311377452583262e-06
-9.6774282441091849e-09
4.3583989893860404e-06
-7.5067158107459896e-06
-2.409784877771851e-08
3.4740138101178443e-06
-2.7942535324323357e-05
-1.7430794143650607e-08
-0.00013789493339154413
-1.0986358690751821e-07
-6.3947486030445626e-06
0.00013364547747742983
-8.7894618876034877e-07
-7.8886687190434114e-06
2.0501732661396591e-05
-2.49967188016525e-07
-8.3243755948375009e-06
2.6595698725929937e-06
-1.472432552798398e-07
-8.6891983647414987e-06
1.2653360976260348e-06
-8.5096455800214636e-08
-9.0332575112258623e-06
1.3682955197225941e-06
-5.6904738933232051e-08
-9.3485018456171043e-06
1.5270421096135237e-06
-3.9386214105356653e-08
-9.6215220106592958e-06
1.6616560474758345e-06
-2.9814406417499471e-08
-9.8430701991989391e-06
1.7695244167124701e-06
-2.4151262988418697e-08
-1.0004199267993227e-05
1.8521615818565114e-06
-2.094340630796199e-08
-1.0095445910990441e-05
1.9128228454884266e-06
-1.9381097289977899e-08
-1.0107099345809386e-05
1.9563479598725704e-06
-1.9036385346578022e-08
-1.0028417846918747e-05
1.987915284328861e-06
-1.9640049157118198e-08
-9.8475652797875826e-06
2.0129507957934056e-06
-2.1050047445414404e-08
-9.5526629492801885e-06
2.0366449955227137e-06
-2.3226506523255872e-08
-9.1312081519852276e-06
2.0622086529880736e-06
-2.5941753280758049e-08
-8.5715628107689194e-06
2.0903716765760193e-06
-2.9150966266500752e-08
-7.8637899955366159e-06
2.1182198224965964e-06
-3.2674988858973269e-08
-7.0014570929387018e-06
2.1377450507054112e-06
-3.6201692163941536e-08
-5.9840030896925997e-06
2.1353053412142061e-06
-3.9305771466824022e-08
-4.8190677182909373e-06
2.0909163328933294e-06
-4.1672184638596069e-08
-3.5247209748062288e-06
1.9787959571255515e-06
-4.3246776378050231e-08
-2.1340199670954813e-06
1.7717488152812504e-06
-4.3898640979301357e-08
-6.9578539396507189e-07
1.4412273397535682e-06
-4.349911332886895e-08
7.2245183188527493e-07
9.6547932047986731e-07
-4.1287028551185528e-08
2.0439999575409351e-06
3.2599877907959934e-07
-3.1610932926204894e-08
3.1950045361686843e-06
-4.4026377628609177e-07
-2.6682254220361652e-08
4.0873581344620497e-06
-1.3552347986557731e-06
-2.2709795816966997e-08
4.68978587088636e-06
-2.2733070121896976e-06
-2.003952953914799e-08
4.9578887564051179e-06
-3.260410855971802e-06
-1.1374812893912564e-08
4.9464102669333417e-06
-4.0327986331785539e-06
-1.1875708394287168e-08
4.6370021381356368e-06
-4.9177298721326084e-06
-5.3465313764292802e-09
4.1979876020242616e-06
-7.0562474252782858e-06
-1.2892478365977275e-08
3.4831367475902106e-06
-2.723606796298274e-05
6.7328294224301289e-09
-0.00013429631903702515
-1.1498567767372851e-07
-6.1914717466734265e-06
0.00014067390195125515
-8.3792676612274085e-07
-7.6577176253823933e-06
2.2194185596195596e-05
-2.2748594642444291e-07
-8.1087538268507228e-06
3.2456735672695369e-06
-1.3636009409120166e-07
-8.4970288804657189e-06
1.7293783164275295e-06
-7.7098795465876319e-08
-8.8669148806048471e-06
1.788086910454941e-06
-5.1243695697417115e-08
-9.2086657898022003e-06
1.9025562629688566e-06
-3.5102108539557804e-08
-9.5082814366398767e-06
1.9862922106607863e-06
-2.6358339835775316e-08
-9.7544421709117391e-06
2.0355455668462653e-06
-2.1198623552841215e-08
-9.9369367330924332e-06
2.0517383902519914e-06
-1.8421376857149175e-08
-1.004525932342587e-05
2.0369680918118613e-06
-1.7162497762633934e-08
-1.0068980677434657e-05
1.9958025736817153e-06
-1.7073624405312482e-08
-9.9970820039239228e-06
1.9325408108360153e-06