/*--------------------------------*- C++ -*----------------------------------*\
  =========                 |
  \\      /  F ield         | OpenFOAM: The Open Source CFD Toolbox
   \\    /   O peration     | Website:  https://openfoam.org
    \\  /    A nd           | Version:  12
     \\/     M anipulation  |
\*---------------------------------------------------------------------------*/
FoamFile
{
    format      ascii;
    class       volScalarField;
    location    "10";
    object      rho;
}
// * * * * * * * * * * * * * * * * * * * * * * * * * * * * * * * * * * * * * //

dimensions      [1 -3 0 0 0 0 0];

internalField   nonuniform List<scalar> 
39304
(
1.185382613015759
1.1892003318669229
1.1893573102034485
1.1893654799358475
1.1893660152530718
1.1893661074465913
1.1893661532759161
1.1893661838696992
1.1893662064174175
1.1893662244793908
1.1893662402303731
1.1893662550530084
1.18936627006086
1.1893662865764039
1.1893663084487254
1.1893663652644801
1.189366731898021
1.189369648773662
1.1893895521795135
1.1894932093409616
1.1898715068232419
1.1907667749153334
1.1920866316621044
1.193330436540792
1.1941478813805055
1.194569412933048
1.1947575878074814
1.1948292130260889
1.1948418456812906
1.1948216496506339
1.1947811969571542
1.194762438143611
1.1948610830531126
1.1952595435092497
1.1847473181911083
1.1891443311256855
1.1893500563355957
1.1893609621502326
1.1893616797403304
1.1893618270489548
1.1893619131460449
1.189361975661323
1.1893620243666094
1.1893620649301837
1.1893621011691833
1.1893621359170106
1.1893621716657115
1.1893622111271838
1.1893622587132131
1.1893623310737886
1.189362544659667
1.1893637580756693
1.1893713500246956
1.1894114148252592
1.1895727208229341
1.1900327758631641
1.1909098055533076
1.192010600750764
1.1929565895749796
1.1935470706387528
1.1938051602375317
1.1938297514603928
1.1937049261764054
1.1934896030358124
1.1932598586721941
1.1932423458776733
1.1936052418949312
1.1948932252028748
1.184232206532885
1.1890870195529752
1.1893422872788999
1.1893564765114124
1.189357395079762
1.1893575765030078
1.1893576896301146
1.1893577770314132
1.1893578482438647
1.1893579094184406
1.1893579650536634
1.1893580188330368
1.1893580741296317
1.1893581344825386
1.1893582043305315
1.1893582920141876
1.1893584316742438
1.18935884633688
1.1893609723879031
1.1893724450204655
1.1894239229051489
1.1895986435536436
1.1900194513962856
1.1907120624190044
1.1915009332194386
1.1921516231734888
1.1925320296767592
1.1926176949546075
1.192434834884698
1.1920336682550863
1.1916600490954181
1.1915782562789732
1.1922138524328469
1.1946647029289628
1.1837975563945837
1.189033904689988
1.189334435736904
1.1893520435740683
1.1893531648052356
1.1893533657103099
1.1893534937091021
1.1893535970931917
1.1893536844744845
1.1893537615354557
1.1893538327880926
1.1893539021938513
1.1893539734903851
1.1893540505353239
1.1893541377445704
1.1893542409703743
1.1893543717903594
1.1893545789175504
1.1893551605939439
1.1893578301393934
1.1893705036136526
1.1894200517405005
1.1895656089121478
1.1898700914287184
1.1903169321596387
1.1907900721229912
1.1911601119814659
1.1913433902406645
1.1913026965637061
1.1909578533292833
1.1905006884036076
1.1902896498764388
1.1909200838437781
1.1944860371336508
1.1834179899503021
1.1889865821304912
1.1893268300680189
1.1893476717097622
1.1893489824708319
1.1893491917785368
1.1893493250076568
1.1893494366132067
1.1893495339865012
1.1893496218533193
1.1893497043361605
1.189349785247612
1.1893498682611559
1.1893499571276063
1.189350055954135
1.1893501695344904
1.1893503040935114
1.1893504720227257
1.1893507260679481
1.1893513682016597
1.189353950074644
1.1893647118495321
1.189401541429369
1.1894974185888447
1.189679974184249
1.1899103383095548
1.190115608911456
1.190222675092055
1.1901852914726745
1.19002799309745
1.1898482311226979
1.1897063265663037
1.1899880886727512
1.194328487059922
1.1830795363936635
1.1889422062199355
1.1893193575442538
1.1893433382909506
1.1893448335231036
1.1893450457131689
1.1893451781060802
1.1893452922377155
1.1893453944715378
1.1893454885708818
1.1893455780953692
1.1893456664687991
1.1893457570321144
1.1893458531756067
1.1893459584927184
1.1893460768855637
1.1893462126624854
1.1893463710190528
1.1893465621907684
1.1893468302006553
1.1893474096592604
1.1893493707942042
1.1893564353106703
1.189378935764867
1.189430730043272
1.1895086357457489
1.1895851703962794
1.189622620765032
1.1895985949725723
1.1895506233780702
1.1894998701014325
1.1894809855766859
1.1898406257501355
1.1941782758627726
1.182773649678611
1.1889003980185331
1.1893120352698208
1.189339034695587
1.1893407090862818
1.1893409212041397
1.1893410489069001
1.1893411615239928
1.1893412645862649
1.1893413610766574
1.1893414539427998
1.1893415461006391
1.1893416404437545
1.1893417398926356
1.1893418474294601
1.1893419660991913
1.1893420989528725
1.1893422489611891
1.1893424192037756
1.1893426156489191
1.1893428655234621
1.1893433051286257
1.189344492451704
1.1893483967316114
1.1893586948460355
1.1893766573324873
1.1893958776498732
1.1894041796777062
1.1893972434050448
1.1893877806958286
1.1893800120861355
1.189405266436756
1.1898347269196825
1.1940986912557487
1.1824941982173025
1.1888608077529947
1.1893048541763842
1.1893347536547372
1.1893366020073217
1.1893368125769754
1.189336933260857
1.1893370414461952
1.1893371422181729
1.1893372379240059
1.1893373309363267
1.1893374236659047
1.1893375185436872
1.189337618003294
1.1893377244246393
1.1893378400767001
1.1893379670135569
1.1893381069406137
1.1893382610058367
1.1893384297153364
1.1893386142441948
1.189338824984417
1.1893391187919646
1.1893397447746041
1.1893412736114688
1.189344126035331
1.1893473710386193
1.1893486701196827
1.1893475953497725
1.1893466571289997
1.1893482234423272
1.1893853963106362
1.1898485042906009
1.1940349503494763
1.1822365466063762
1.1888231199223631
1.18929779497823
1.1893304909424669
1.1893325077369452
1.1893327160611016
1.1893328283572659
1.1893329301126554
1.1893330262622122
1.1893331186483009
1.1893332091659541
1.18933329980101
1.1893333925675411
1.1893334894371779
1.1893335922509742
1.1893337026080479
1.1893338217834395
1.1893339506186174
1.1893340893090816
1.1893342371306319
1.1893343922330253
1.1893345520029468
1.1893347162899268
1.1893349042207795
1.1893351601654023
1.1893355321688843
1.1893359205821257
1.1893360530911541
1.1893359398506012
1.1893360748796955
1.1893389551952829
1.1893796487541137
1.1898571909725095
1.1939715975211045
1.1819972003592312
1.1887871223255135
1.189290881005397
1.1893262439049779
1.1893284230566608
1.1893286287759663
1.1893287318143579
1.189328825706168
1.1893289153912125
1.1893290023625565
1.1893290881701608
1.1893291744747219
1.1893292629518286
1.1893293551807311
1.1893294525423901
1.1893295561055215
1.1893296665759687
1.1893297841979134
1.1893299086225932
1.1893300386705532
1.1893301720869349
1.189330305402087
1.1893304340789499
1.1893305563390788
1.1893306646954471
1.1893307536802695
1.1893308067960757
1.1893308106728406
1.1893307710347425
1.1893309505769405
1.18933395673366
1.1893760217094489
1.1898569335040554
1.1939066203156221
1.1817734435358396
1.18875265405026
1.189284109538248
1.1893220115775012
1.1893243460586242
1.1893245489694388
1.1893246422740311
1.1893247272845466
1.1893248090944259
1.1893248890139672
1.1893249683980087
1.189325048667643
1.1893251312162585
1.1893252173071442
1.1893253079633106
1.1893254038964458
1.1893255054091123
1.1893256123278861
1.1893257239714501
1.1893258390312704
1.189325955327627
1.1893260697211714
1.1893261781362612
1.1893262773831548
1.1893263611192693
1.1893264213826695
1.1893264494168663
1.1893264537357926
1.1893264308691174
1.1893266090713224
1.1893296035948759
1.1893720165569548
1.1898504722536998
1.1938398072430609
1.1815631318347686
1.1887195936587847
1.1892774790584189
1.1893177935192558
1.1893202747352993
1.1893204744928532
1.1893205575979648
1.1893206328049648
1.189320705514664
1.1893207769997434
1.189320848513405
1.1893209213129856
1.1893209965748119
1.189321075320787
1.1893211583407197
1.1893212461423102
1.189321338837132
1.1893214360384317
1.1893215367841992
1.1893216396457318
1.1893217427744234
1.189321843523766
1.189321938573386
1.1893220248086782
1.1893220994940461
1.1893221557296234
1.1893221862508225
1.1893222030571193
1.1893221998390957
1.1893223807407478
1.1893253168861175
1.1893674096060802
1.1898402620592061
1.1937711114580818
1.1813645405280422
1.1886878498666034
1.1892709921873277
1.1893135900702261
1.1893162083123789
1.1893164042772164
1.1893164766421631
1.1893165412140974
1.1893166037865475
1.1893166656869671
1.1893167281146766
1.1893167922387855
1.1893168590979668
1.1893169295570998
1.1893170042731969
1.1893170836156484
1.1893171676326812
1.1893172559771352
1.1893173477952694
1.1893174414514076
1.1893175346716853
1.18931762576439
1.1893177121992684
1.1893177910238373
1.1893178609823336
1.1893179176768638
1.1893179560073481
1.1893179844499508
1.1893179994273901
1.1893181805659798
1.1893210291861445
1.1893624039709361
1.1898278695358069
1.1937005941968932
1.1811762602296809
1.1886573555673681
1.1892646545056653
1.1893094018909138
1.189312146098835
1.1893123372799166
1.1893123982329701
1.1893124513268625
1.1893125027745906
1.1893125539913352
1.1893126062043615
1.1893126605522903
1.1893127180335186
1.1893127794662459
1.1893128454386059
1.1893129162533906
1.1893129918558025
1.1893130718114135
1.1893131553071747
1.1893132412306131
1.1893133281109343
1.1893134132004883
1.1893134941404371
1.1893135693582013
1.189313638918909
1.1893137007031107
1.1893137473633093
1.1893137858271556
1.1893138164044512
1.1893139962979116
1.1893167484896943
1.1893572075485179
1.1898138909592553
1.193628187463192
1.1809971235208601
1.1886280675358532
1.1892584736626963
1.1893052302030664
1.1893080880614928
1.189308273145957
1.1893083218229299
1.1893083624133054
1.189308401562956
1.1893084408286232
1.1893084815513248
1.1893085249430162
1.1893085720580023
1.1893086237403858
1.1893086805711495
1.1893087428217328
1.1893088104021627
1.1893088828339924
1.1893089594708313
1.1893090392080095
1.1893091206582567
1.1893092023246981
1.1893092823174296
1.1893093586803525
1.1893094311932622
1.1893094985743433
1.1893095534038305
1.1893096012482469
1.1893096452605141
1.1893098250738015
1.1893124876155599
1.1893519475466328
1.1897984866279614
1.1935537772489557
1.1808261470175736
1.1885999555292399
1.189252458415607
1.1893010770163488
1.1893040353621334
1.1893042128241211
1.189304248154589
1.1893042750091316
1.1893043004776995
1.1893043263934815
1.1893043542924169
1.1893043855798535
1.1893044214369486
1.1893044627930416
1.1893045102703077
1.1893045641344717
1.1893046245245393
1.1893046912282141
1.1893047633009342
1.1893048396070307
1.1893049187421458
1.1893049991096158
1.1893050793351465
1.1893051578683178
1.1893052352036391
1.1893053077962124
1.1893053709754868
1.1893054281409514
1.1893054838529471
1.1893056659918206
1.1893082503435628
1.1893466461850457
1.1897816858637262
1.193477223105909
1.1806624904215901
1.1885730034299367
1.189246615198013
1.1892969432470535
1.1892999882339013
1.1893001561468051
1.1893001765548801
1.1893001880097003
1.1893001981052427
1.189300209061227
1.1893002226893219
1.1893002406468771
1.1893002643055752
1.1893002947352487
1.1893003326350413
1.1893003785209548
1.1893004326500523
1.1893004944849108
1.1893005632513827
1.1893006378402593
1.1893007168682017
1.1893007987742781
1.1893008819841737
1.1893009655672666
1.1893010482177147
1.1893011267458757
1.1893011986305646
1.1893012650825303
1.1893013312231315
1.1893015172872552
1.1893040264743391
1.189341250086327
1.1897636255686102
1.1933983573013003
1.1805054239442347
1.1885472009900562
1.1892409511706385
1.1892928297835106
1.1892959465726711
1.1892961023498072
1.1892961056174145
1.1892960994905228
1.1892960921000884
1.1892960861747741
1.1892960838429043
1.1892960870473219
1.1892960973861959
1.1892961161009896
1.1892961440359837
1.1892961821380224
1.1892962303731409
1.1892962883512028
1.1892963552643188
1.1892964299595155
1.1892965110234022
1.1892965969102942
1.1892966860738721
1.1892967760927067
1.189296865241273
1.1892969518489152
1.1892970332813804
1.1892971094638642
1.1892971855746512
1.1892973758224539
1.1892998021987102
1.1893357146961197
1.1897445389262788
1.1933169650059146
1.1803542998811909
1.1885225300948137
1.1892354740583411
1.1892887391786562
1.1892919114889995
1.1892920517953669
1.1892920350738554
1.1892920087553809
1.1892919814349523
1.1892919564509139
1.1892919362554335
1.1892919231109342
1.1892919188627962
1.1892919249930398
1.1892919426436557
1.1892919729014682
1.1892920158629059
1.1892920711604431
1.1892921378863095
1.1892922147113971
1.1892922999921367
1.189292391808358
1.1892924880464908
1.1892925864016761
1.1892926847620826
1.1892927812074292
1.1892928732415928
1.1892929599439162
1.1892930462318483
1.1892932404670975
1.1892955732378061
1.1893300458151015
1.1897245890929142
1.1932327712325566
1.1802085310847075
1.1884989647903144
1.1892301999324657
1.1892846751529764
1.1892878842359318
1.1892880049034682
1.1892879647204437
1.1892879150871858
1.1892878649570617
1.1892878183656568
1.1892877780602749
1.1892877466904284
1.1892877263908275
1.1892877189499027
1.1892877258486625
1.1892877484283892
1.1892877869546148
1.1892878410475609
1.1892879096085092
1.1892879909228338
1.1892880828594383
1.1892881830583755
1.1892882889862249
1.1892883979873188
1.1892885074994874
1.1892886153656683
1.1892887189843879
1.1892888170669638
1.1892889140624741
1.1892891121837712
1.1892913415967072
1.1893242627386378
1.1897038532562529
1.1931454507650223
1.1800675690113063
1.1884764628504159
1.1892251528398827
1.18928064168604
1.1892838647301387
1.1892839604425174
1.1892838925257738
1.1892838157497603
1.1892837393220699
1.1892836680371437
1.1892836049191768
1.1892835530726746
1.1892835149664773
1.1892834927547735
1.1892834883379633
1.1892835035227454
1.1892835387137901
1.1892835934427402
1.1892836663077635
1.1892837550671542
1.1892838569108664
1.189283968767747
1.1892840874517676
1.1892842098442269
1.1892843329278528
1.1892844541673873
1.1892845706481421
1.1892846811753495
1.1892847896570404
1.189284991809044
1.1892871096918793
1.1893183795278452
1.1896823642039562
1.1930546365654815
1.1799308883736173
1.1884549900763268
1.1892203738219189
1.1892766433962627
1.1892798515153109
1.1892799153964662
1.189279814495521
1.1892797058408253
1.1892795988344553
1.1892794989999433
1.1892794096488251
1.1892793343797097
1.1892792761089417
1.1892792374707362
1.1892792209162477
1.1892792295109507
1.1892792636470679
1.1892793221999611
1.1892794029520615
1.1892795029241312
1.1892796185618644
1.1892797459077755
1.1892798809665965
1.1892800199625866
1.189280159395983
1.1892802963220903
1.1892804273348525
1.1892805517343881
1.1892806728397138
1.1892808795176695
1.1892828791831553
1.1893124084480597
1.1896601399864772
1.1929599178400108
1.1797979764911357
1.1884345718598663
1.1892159172640497
1.1892726803728211
1.1892758365254723
1.1892758589429477
1.1892757172271249
1.1892755689447041
1.1892754236862904
1.1892752876094366
1.1892751644371353
1.189275058375743
1.1892749730278021
1.1892749117850834
1.1892748789804135
1.1892748861272022
1.1892749322874154
1.1892750098518812
1.1892751107414521
1.1892752302159249
1.1892753654824717
1.1892755130886608
1.1892756686730195
1.1892758277949813
1.1892759865278277
1.1892761413764827
1.1892762886918249
1.1892764285192505
1.1892765635205536
1.1892767755544595
1.1892786517753151
1.1893063596891524
1.1896371964303929
1.1928608195921684
1.1796683552136338
1.1884154616321827
1.1892118363226984
1.1892687166693992
1.1892717661862782
1.1892717220972215
1.1892715112051764
1.1892712895527549
1.1892710671323636
1.1892708508161678
1.1892706457246009
1.1892704581859781
1.1892702944278704
1.1892701608811931
1.1892700727239032
1.1892701155979719
1.1892702814267369
1.1892705059960424
1.1892707247961423
1.1892709159891164
1.1892710926097543
1.1892712698333352
1.189271451458574
1.18927163477787
1.189271815817923
1.1892719903761735
1.1892721556684294
1.1892723122198339
1.1892724622446866
1.1892726805261971
1.1892744294134274
1.1893002446955094
1.1896135510269048
1.1927567846593057
1.179541585846869
1.1883984506830236
1.1892080474422499
1.1892644964209438
1.1892672828869879
1.189267017534696
1.1892665396988651
1.1892660019894727
1.1892654148144484
1.1892647902420608
1.1892641431918651
1.1892634949729795
1.189262871205947
1.1892623029681739
1.1892618631423237
1.1892621632933746
1.1892631954159267
1.1892645252997411
1.1892656527246674
1.1892663603786244
1.1892667513474531
1.1892670082566024
1.1892672299509577
1.1892674431694743
1.1892676497512311
1.1892678453079866
1.1892680301291718
1.189268204251434
1.1892683700167679
1.1892685952425883
1.1892702140963294
1.1892940761768476
1.189589222471195
1.1926471506284986
1.1794171566460132
1.1883856748750916
1.1892038257577493
1.1892586258413287
1.189260328904203
1.1892588414510421
1.1892568389724671
1.1892544703285404
1.1892517548885619
1.1892487404997441
1.1892455063577914
1.1892421738749674
1.1892389019471008
1.1892358970049772
1.1892335150677953
1.1892350817991773
1.189240824082858
1.1892486224753434
1.1892555809746734
1.1892599335990262
1.18926189821093
1.1892626410496681
1.1892629929209846
1.1892632542840091
1.1892634902831019
1.1892637089700406
1.189263914237046
1.1892641062306184
1.1892642878892492
1.1892645204060979
1.1892660077263768
1.1892878673587599
1.1895642283634098
1.1925311120058357
1.1792933603254838
1.1883802217325328
1.1891955499149229
1.1892448444919455
1.1892413826356283
1.1892337601981382
1.1892242456466735
1.1892130508042171
1.1892002426883164
1.1891860468682374
1.1891708597339137
1.189155319881591
1.1891403076902365
1.1891269757101359
1.1891169843074765
1.1891232773094265
1.1891475429471043
1.1891827734334943
1.1892173396809362
1.1892415037161304
1.1892533349402872
1.1892574367160065
1.1892586160448058
1.1892590540522392
1.1892593381894161
1.1892595842534441
1.1892598102336749
1.1892600194948153
1.1892602163264598
1.1892604558786373
1.1892618114895523
1.1892816337085126
1.1895385845509585
1.1924076620233135
1.1791635650226564
1.188384135685147
1.1891705943971023
1.1892023477597038
1.1891787131098939
1.1891483184720739
1.1891114194135732
1.189068945943893
1.1890209273451977
1.1889682206173617
1.1889123551971985
1.1888560031234441
1.1888029557631636
1.1887581179115534
1.1887276330602174
1.1887458734847789
1.1888207886324511
1.1889371335781889
1.1890637067403156
1.1891653817992169
1.1892236562222118
1.1892466357017166
1.1892531276408631
1.1892546843668308
1.1892551777394043
1.1892554735203458
1.1892557212375212
1.1892559457727008
1.1892561555466881
1.1892564007469577
1.1892576255671579
1.1892753893849615
1.1895122830092406
1.1922754972692473
1.1789913256309521
1.1883842909346274
1.1890965228410943
1.1890859967858778
1.1890038448159028
1.1889155100916626
1.188806853316245
1.1886855493500295
1.1885484928900865
1.1883985372701937
1.188239791987707
1.1880811096070527
1.1879355471008819
1.1878199386176191
1.1877512672359491
1.1877898051620754
1.187958031149303
1.1882374848423487
1.1885749975704281
1.1888885828542937
1.1891040013881267
1.1892067690050847
1.1892406315436088
1.1892489698124442
1.1892508356189575
1.1892513618293599
1.1892516502482677
1.1892518876844309
1.189252105998416
1.1892523535915314
1.1892534489437467
1.1892691461138769
1.1894852829957205
1.1921328853495139
1.1787100094299277
1.1881427434993359
1.1889043588558288
1.1888407285443341
1.1886420006269862
1.1884599625308989
1.1882172397816468
1.18796411692402
1.1876753871230969
1.1873544246107326
1.1870059208930583
1.1866497537487877
1.1863226729784575
1.1860770490805594
1.1859546036287012
1.1859956828356115
1.1862555821065275
1.1867393462939695
1.1873991900614136
1.1881120411553485
1.1887025010497485
1.1890525436156207
1.1891929612410663
1.189235341487799
1.1892451590594635
1.1892470987729027
1.1892475869806571
1.189247847717436
1.1892480682806053
1.1892483120190376
1.1892492780417048
1.1892629094287124
1.1894574979298136
1.1919774712228335
1.1784236101750953
1.1861954861418529
1.1882124571135126
1.1883226848171184
1.1879808129706741
1.1876860812254286
1.1873510615157752
1.1869791396577407
1.1865590253979339
1.1860832317096721
1.1855518403307586
1.1849809485130118
1.184415306709534
1.1839418590610471
1.183680664687885
1.1836185167298245
1.1838189058421238
1.1843537455605526
1.1852572052677479
1.1864463881702823
1.1876537679552499
1.1885477214272351
1.1890139641561874
1.1891864160566916
1.1892324776044083
1.1892418049037612
1.1892434317605645
1.1892438207738287
1.1892440430305131
1.1892442735836357
1.1892451088845604
1.1892566842962558
1.1894287178106751
1.1918059013208604
1.1781102507760193
1.1835762785167969
1.1853134856717551
1.1859272188868339
1.1862652139595411
1.1863511404461393
1.1862477422103406
1.1859971874119974
1.1856358752045693
1.1851825441160637
1.184648814793813
1.184047941758668
1.1834016909889782
1.1827492062289828
1.1821690714716631
1.1817771724586652
1.1816327425024709
1.1818413651383268
1.1825478259688067
1.1838516677164541
1.1856120400107741
1.187326950046439
1.188484754218752
1.189020855650075
1.1891924179160427
1.1892318117760527
1.189238692535572
1.1892397592238835
1.1892400265334369
1.1892402320931621
1.1892409249724243
1.1892504097250347
1.1893984158100406
1.1916130558271589
1.1777253805135943
1.1807601285583076
1.1818321846941793
1.182243286095114
1.182443240753277
1.182564657907027
1.1827040114257372
1.1828722838820211
1.1830267656124118
1.1831076762728312
1.1830695205163335
1.1828927792433486
1.1825772975342497
1.1821293549621195
1.1816027243103127
1.18107064600866
1.1805966428233758
1.1802979591878804
1.1803913400557418
1.1811865185792954
1.1828946210012818
1.1852209436136663
1.1873261669976547
1.1885823469379255
1.1890754322311652
1.1892068115846983
1.1892318391159422
1.1892354941153782
1.1892360058471632
1.1892361881387508
1.189236739107522
1.1892442222818442
1.1893664653342284
1.191389077541958
1.177111572999636
1.1781876453429159
1.1785964463191856
1.1787749713282414
1.1788603305342165
1.1789027115708044
1.1789314808478704
1.1789634502822426
1.17900716476947
1.1790620441623922
1.1791158762574294
1.1791487159962482
1.1791455114680505
1.1791163688077142
1.1790707461545458
1.1790063702892035
1.1789261333556524
1.1788543463857124
1.1788835736993164
1.1792652827441641
1.1804436620073973
1.1827038535314938
1.1855221760884027
1.1877415004758882
1.1888229391380318
1.1891541350424941
1.1892212678283209
1.1892309023091554
1.1892319771424789
1.1892321382148057
1.1892325505086325
1.1892384299459673
1.1893341372462127
1.1911190821768594
1.1855362557945615
1.1892153669187124
1.1893585123063772
1.1893655452976444
1.1893660083253204
1.1893660982946208
1.1893661458075391
1.1893661781221143
1.1893662022777289
1.1893662217156871
1.1893662386737243
1.1893662546463286
1.1893662708927595
1.1893662893854438
1.1893663201707767
1.1893664535567325
1.1893674842380357
1.1893752567104452
1.1894224366842845
1.1896307250842251
1.1902400374985573
1.1913505852598749
1.1926185515557022
1.1935942225952547
1.1941569336291229
1.194422928684856
1.1945255373192065
1.1945441875389819
1.1945176127366461
1.1944645401095262
1.1944201045249547
1.1944380813415256
1.1945842987786324
1.1950524070795212
1.1849475677051051
1.1891670064860955
1.1893517816420069
1.1893610336084641
1.1893616536198115
1.1893617997674755
1.1893618898950953
1.1893619565062108
1.189362009109201
1.1893620532685774
1.1893620929101216
1.1893621310549483
1.1893621704248265
1.1893622142878595
1.1893622704079649
1.1893623825318083
1.189362874586761
1.1893659477956624
1.1893837339106237
1.1894654508224582
1.1897380265494972
1.1903518201690246
1.191260095366939
1.1921838188395282
1.1928847992045741
1.1932924109491054
1.1934458986245533
1.1934181023896484
1.1932797366639161
1.1930955736171489
1.1929357445220925
1.1929435991145447
1.1933321207028065
1.1946970663613061
1.1844695134734116
1.1891180762421807
1.1893445472711623
1.189356554373779
1.1893573476375934
1.1893575295176995
1.1893576492968978
1.1893577432238169
1.1893578205977813
1.1893578875347421
1.1893579487399697
1.1893580081102657
1.1893580692758567
1.189358136170378
1.1893582144414072
1.1893583198288904
1.189358540965612
1.1893594645320775
1.1893645027500506
1.1893892250737026
1.1894838306215783
1.189744438392961
1.1902376077689614
1.1908883235198939
1.1915276446751857
1.1920162625711277
1.1922862998789912
1.1923221366952472
1.1921437161512856
1.1918067789464972
1.191493497839085
1.1913884525107645
1.1919875501787689
1.1944748506346483
1.184061910498033
1.1890688536685525
1.1893371642070747
1.1893521334617125
1.1893531002369748
1.1893533020962539
1.189353438579319
1.1893535503375579
1.1893536456215736
1.1893537302085173
1.1893538088278302
1.189353885643547
1.1893539646409974
1.1893540500108564
1.1893541467461486
1.1893542625688436
1.1893544203930158
1.1893547458455183
1.1893559924929724
1.1893619934064459
1.1893875632386719
1.189471452210177
1.1896695760375611
1.1900011244222786
1.1904098465762414
1.1907986898891953
1.1910839752509224
1.1912116663633603
1.1911586875436548
1.1908623385696495
1.1904489477097771
1.1902105687237472
1.190755614672057
1.1942985329717164
1.1837055608756004
1.1890258824027347
1.1893299742681271
1.1893477726103969
1.1893489029397915
1.1893491132666605
1.1893492562755514
1.1893493775958681
1.1893494841492909
1.1893495808976959
1.1893496721344097
1.1893497618534867
1.1893498539553653
1.1893499524879765
1.1893500619531225
1.1893501878137103
1.1893503385475259
1.1893505398865247
1.1893509276884695
1.189352241436114
1.1893577817873509
1.1893783794700679
1.1894370637965777
1.1895588575590363
1.1897498767049945
1.1899668559518062
1.1901430631941481
1.1902252148194334
1.1901831093810975
1.1900279557184683
1.1898509887827562
1.1897066828480254
1.1899106917993891
1.1941417252677753
1.1833871912996117
1.1889852743314444
1.1893228733816097
1.189343450606503
1.1893447415192648
1.189344954269598
1.1893450972081512
1.1893452219125684
1.1893453342171529
1.1893454381758544
1.1893455374624289
1.1893456356538299
1.1893457362946172
1.1893458430291834
1.1893459597463294
1.1893460907253863
1.1893462409160076
1.1893464177189144
1.1893466437694464
1.1893470333822389
1.1893481483850425
1.1893521742123334
1.1893651531714255
1.1893985908538107
1.1894627638226847
1.1895473266259466
1.1896229767452693
1.1896566190329056
1.1896299497823872
1.1895742050518088
1.1895158852629966
1.1894884142838607
1.1898228328754124
1.1939972318780827
1.1830988986587527
1.1889467531121061
1.1893158746622685
1.1893391576744523
1.189340606522266
1.1893408183542749
1.1893409569360447
1.1893410805006306
1.1893411941780849
1.1893413011262433
1.1893414043831585
1.1893415070017288
1.1893416120529927
1.1893417226575191
1.1893418420211241
1.1893419734339787
1.1893421202583199
1.1893422860003569
1.1893424754896533
1.189342703775768
1.1893430443280009
1.1893438212977578
1.1893461188376424
1.1893528394157098
1.1893680878833177
1.1893913338194655
1.189414146049641
1.1894235997772171
1.18941445072795
1.189400358086609
1.1893883093884767
1.1894085045024221
1.1898170599137852
1.1939242163502597
1.1828349895969699
1.1889100230157195
1.189308975463538
1.1893348863140996
1.1893364906017343
1.1893366998221284
1.1893368313533716
1.1893369505788398
1.189337062214054
1.1893371686720726
1.1893372724066282
1.1893373759535908
1.1893374818928943
1.189337592805678
1.1893377112210679
1.1893378395606675
1.1893379800656292
1.1893381346785405
1.1893383049165005
1.1893384923797805
1.1893387033647549
1.189338971249164
1.1893394304700298
1.1893405381732332
1.1893431668409784
1.189347631696946
1.1893524153716348
1.1893544490698735
1.189352531987238
1.1893503446228453
1.1893507212631627
1.1893855856797937
1.1898302055146355
1.1938629238639324
1.1825911657833714
1.1888748408312353
1.1893021749454777
1.1893306321332411
1.1893323887845235
1.1893325945572044
1.189332717353494
1.1893328299811858
1.1893329369221022
1.1893330400447735
1.1893331413263939
1.1893332428587184
1.1893333467682945
1.1893334551332388
1.1893335698821417
1.1893336927092306
1.1893338250018941
1.1893339677240744
1.1893341212131281
1.1893342849272677
1.1893344575046494
1.1893346384129599
1.1893348351095199
1.1893350927990822
1.1893355154129344
1.1893361724333871
1.1893368805472353
1.1893371909675265
1.1893369260687159
1.1893369064222814
1.1893395845476615
1.1893788930899754
1.1898386015944085
1.1938006518834472
1.1823641699887337
1.1888410399865894
1.1892954674188303
1.1893263926988087
1.1893282977479762
1.1893284996983338
1.1893286127535967
1.1893287171826621
1.1893288173930763
1.189328914912928
1.1893290113704849
1.1893291085043456
1.1893292080609494
1.1893293116824442
1.1893294208014036
1.18932953654309
1.1893296596556024
1.1893297904344458
1.1893299285847732
1.1893300729717518
1.189330221370948
1.1893303704006739
1.189330515909373
1.1893306572560425
1.1893307957226398
1.1893309273112569
1.1893310278848819
1.1893310633232042
1.1893310137582538
1.1893311969284124
1.1893341653613443
1.1893750678674135
1.1898381396299051
1.1937361476832919
1.1821514896071319
1.1888084972751505
1.1892888584241441
1.1893221664615221
1.1893242149266092
1.1893244128312899
1.1893245155005936
1.189324610498607
1.1893247023812745
1.1893247924977746
1.1893248822555336
1.1893249731220568
1.1893250665272972
1.1893251637690863
1.1893252659149349
1.1893253737041261
1.1893254874495576
1.1893256069654616
1.1893257315438126
1.189325859864131
1.1893259897150752
1.1893261178828411
1.1893262401748217
1.1893263526246265
1.1893264511341224
1.18932652587873
1.1893265667219872
1.1893265805415294
1.1893265608892114
1.1893267485175767
1.1893297156540299
1.189370999334725
1.1898313601311401
1.19366953093846
1.1819511658181956
1.1887771376128013
1.1892823671423365
1.1893179526408884
1.1893201383807175
1.1893203318866463
1.1893204235662436
1.1893205080958049
1.1893205903252333
1.1893206715508944
1.1893207530475001
1.1893208360902936
1.1893209218736471
1.1893210114341641
1.1893211055878772
1.1893212048581023
1.1893213093669166
1.1893214187070777
1.1893215318327073
1.1893216471839168
1.1893217628630279
1.189321876179916