/*--------------------------------*- C++ -*----------------------------------*\
  =========                 |
  \\      /  F ield         | OpenFOAM: The Open Source CFD Toolbox
   \\    /   O peration     | Website:  https://openfoam.org
    \\  /    A nd           | Version:  12
     \\/     M anipulation  |
\*---------------------------------------------------------------------------*/
FoamFile
{
    format      ascii;
    class       volScalarField;
    location    "10";
    object      T;
}
// * * * * * * * * * * * * * * * * * * * * * * * * * * * * * * * * * * * * * //

dimensions      [0 0 0 1 0 0 0];

internalField   nonuniform List<scalar> 
39304
(
294.03742112016408
293.09346617766369
293.05478232034795
293.05276949700544
293.05263772918568
293.05261512746245
293.0526039503597
293.05259653523143
293.05259111604386
293.05258681912369
293.05258311294028
293.05257966146013
293.05257619583386
293.0525723972944
293.05256732685217
293.05255370733101
293.05246382841347
293.05174568632196
293.04684239124776
293.0213059003068
292.92814601227252
292.70791101066158
292.38383032923832
292.07907931684633
291.87913828964349
291.77614127648928
291.73018575222761
291.71269732841898
291.70961336414911
291.71454549499515
291.72442623960484
291.72901587516827
291.70494726585014
291.60771547997075
294.19408448218047
293.1062639906433
293.05556480951134
293.05287772556073
293.05270101872139
293.05266482313527
293.05264371624617
293.05262843016641
293.05261656062635
293.05260671481216
293.05259795538927
293.0525895879473
293.05258100289933
293.0525715374107
293.05256011090449
293.05254262838417
293.05249040455243
293.05219188876134
293.05032180486364
293.0404510530912
293.00071516120886
292.88744392298617
292.6717502527211
292.40147336868455
292.16960407113129
292.02505837847878
291.96192415682344
291.95590927970284
291.98643854697599
292.03911758912631
292.09534735770029
292.09963914617828
292.01083942238688
291.69608995868271
294.3210424665894
293.11938597586948
293.05647418279324
293.05297800969777
293.05275176723086
293.05270715374957
293.0526793778202
293.05265795240348
293.05264053012729
293.05262559800684
293.05261205009515
293.05259898142128
293.05258556373474
293.05257092798331
293.0525539831325
293.0525326754028
293.05249859000946
293.05239676207219
293.05187323985285
293.04904670502822
293.03636362294844
292.99332386102265
292.88971623331128
292.7193473126552
292.52554169640217
292.36587651185278
292.27261339794569
292.25161877075885
292.29643529225552
292.39480497690261
292.48648013662836
292.50655930049771
292.35062073445232
291.75087226386933
294.42809746491139
293.13147462436217
293.05740387005676
293.05306530170918
293.05278910683199
293.05273968031798
293.05270822965343
293.05268285665636
293.05266144092849
293.05264258384886
293.05262517513802
293.0526082401006
293.0525908589056
293.05257208154961
293.05255081904579
293.05252562557075
293.05249363883723
293.0524428355701
293.05229968963977
293.0516419739244
293.04851913042745
293.03631091237224
293.00045345073539
292.92547447255612
292.81550966332469
292.69916290220846
292.60823310002979
292.56321678070049
292.57320995586019
292.65792551498282
292.77030999979746
292.82221958750375
292.66720924729435
291.7935019588316
294.52152154347323
293.14213621473158
293.05827295293136
293.05313752688875
293.05281461942798
293.05276311170826
293.0527303622037
293.05270295347066
293.05267906507248
293.05265753329451
293.05263734294232
293.05261755485475
293.0525972635229
293.05257554323737
293.0525513784595
293.05252358099119
293.05249060408852
293.05244937191861
293.05238685064796
293.05222857727489
293.05159215125173
293.04893996143915
293.03986484171406
293.01624369800226
292.97127915123247
292.91455918870224
292.86403630965782
292.83769111686945
292.84688895099669
292.88559794581505
292.92984753425441
292.96478821942293
292.89542026065249
291.8309899618701
294.60476745376383
293.15207208438352
293.05910921706618
293.05320026327291
293.05283189156847
293.0527796642159
293.05274711113663
293.05271906986837
293.05269397266989
293.05267089240522
293.05264895186849
293.05262730681181
293.05260513254262
293.05258159084019
293.05255579122945
293.05252676377762
293.05249343334731
293.05245449883489
293.0524074074504
293.05234126970538
293.05219822638082
293.05171452540759
293.04997313178825
293.04442833007522
293.03166652893952
293.012473664163
292.99362115554038
292.98439686672481
292.99031390844652
293.0021296926293
293.01463183215549
293.01928445270602
292.93071669148628
291.86669646593936
294.67994696086163
293.16137552106767
293.05990845023263
293.05325563642464
293.05284311090776
293.05279089313819
293.05275948671243
293.05273180872354
293.05270649631512
293.05268281425037
293.0526600356377
293.0526374407861
293.05261431456285
293.05258993379528
293.05256355801356
293.05253442834845
293.05250178043082
293.05246486454161
293.05242289810218
293.05237438103222
293.05231257248118
293.0522038593374
293.05191074514505
293.05094805470662
293.04840989789153
293.04398339449722
293.03924723286349
293.03720139073909
293.03891012586132
293.0412415940163
293.04315585691705
293.03693410516752
292.93116512757473
291.88514801185738
294.74857595202457
293.17013265581602
293.06067289003636
293.05330543954631
293.05285004144957
293.05279819779514
293.05276851253518
293.05274191704774
293.05271715830003
293.05269365754106
293.05267082930982
293.05264807811028
293.05262480251514
293.05260039910218
293.05257427585434
293.05254586573744
293.05251465170954
293.05248019923835
293.05244220776154
293.05240053253704
293.05235486418809
293.05230262678589
293.05222981141833
293.05207506616375
293.0516978158422
293.05099444377339
293.05019441365795
293.0498739862079
293.05013862723843
293.05036979542393
293.04998398054619
293.04082525026587
292.92676925506635
291.89972898871576
294.8118010979241
293.1784211956799
293.06140729142635
293.05335071609204
293.052853805891
293.05280250890411
293.05277488244946
293.05274986231086
293.05272623248339
293.05270353862625
293.05268131293735
293.05265906459488
293.05263629489559
293.05261251441118
293.05258726436881
293.05256014376664
293.05253082935081
293.05249910255009
293.05246490219292
293.05242839306072
293.052390018842
293.05235041565868
293.05230962360923
293.05226294695279
293.05219949031135
293.05210744103539
293.05201139019078
293.05197847460062
293.05200623296327
293.05197292432905
293.05126326828821
293.04123689775565
292.92362662879111
291.914216683657
294.87048712870455
293.18629339387087
293.06210590687618
293.05339212157475
293.05285519924337
293.05280453762697
293.0527791846938
293.0527560935692
293.05273404718992
293.05271267744075
293.05269160170116
293.05267040943261
293.05264868557208
293.05262603778914
293.0526021213434
293.05257666701112
293.05254949347784
293.05252053181152
293.05248985829638
293.05245775401528
293.05242476677142
293.05239174741564
293.05235981670415
293.05232942694215
293.05230244863628
293.05228024648471
293.05226690859911
293.05226575684998
293.05227540007752
293.05223111309658
293.05149041139157
293.04112604602966
292.92268588785009
291.92910309658623
294.92530635380865
293.19378886904093
293.0627694079414
293.05342989650234
293.05285469313753
293.05280471708556
293.05278175512126
293.05276084405187
293.05274072922288
293.05272108783953
293.05270158565332
293.05268187150205
293.05266160027543
293.05264045803801
293.05261818899339
293.05259461293144
293.05256964931925
293.05254333393663
293.05251582729954
293.05248744489734
293.05245871850673
293.0524304193147
293.05240355412366
293.0523789169489
293.05235809216691
293.05234305210678
293.05233596660145
293.05233476123954
293.05234029945876
293.05229634543588
293.05155849137185
293.04110831960514
292.92327239409548
291.94444006417092
294.97678973113364
293.20093751466919
293.06339816961594
293.05346415059671
293.05285278364016
293.05280357799825
293.05278312167525
293.05276461795563
293.05274673680896
293.05272916510279
293.05271159405885
293.05269371333782
293.0526752318442
293.05265589575464
293.05263550748049
293.05261393799771
293.05259115494789
293.05256724795362
293.05254244819736
293.05251710226861
293.05249166166328
293.05246677654446
293.05244326659283
293.0524219053467
293.05240337989591
293.05238939986384
293.0523817611259
293.05237752414206
293.0523782496424
293.05233364132891
293.05161016516985
293.04123884265545
292.92478183689485
291.96023919181431
295.02536444306691
293.20776179511711
293.06399154689331
293.05349480179973
293.052849662987
293.05280138491213
293.05278356710625
293.05276767538368
293.05275228338604
293.05273706499571
293.05272172525662
293.05270597614515
293.05268956111803
293.05267226573818
293.05265392587773
293.05263444740791
293.0526138144744
293.05259210777473
293.05256953266468
293.05254648740322
293.05252352876653
293.05250107147339
293.05247973951424
293.05246026372282
293.05244296062847
293.05242892346138
293.05241941196084
293.05241234888473
293.05240861951273
293.05236396796477
293.05166205911826
293.04146758120737
292.92682856873103
291.97648565891564
295.07137965836978
293.2142782172487
293.06454816545198
293.05352168891329
293.05284550276991
293.05279839578958
293.05278338133166
293.05277030865693
293.05275764858953
293.05274505401184
293.05273222373233
293.05271887795874
293.05270477081092
293.05268970009411
293.05267351937971
293.05265615164387
293.05263760728576
293.05261798886102
293.05259749208727
293.05257638639182
293.05255503031344
293.05253409815447
293.05251417047958
293.05249563623607
293.05247848238372
293.05246324112051
293.05245172373202
293.05244222912859
293.05243468399908
293.05239035667881
293.05171221353504
293.04174332025764
292.92926582014786
291.99319625666806
295.11512467102619
293.22049740190727
293.06506614123754
293.05354451245626
293.05284031250852
293.0527946991229
293.05278269982159
293.05277269770562
293.05276305756558
293.05275339811959
293.05274339094007
293.05273273903367
293.05272118362558
293.05270851695019
293.05269459501255
293.05267934900172
293.05266279946267
293.05264505884543
293.05262628202121
293.05260673610883
293.05258675848933
293.05256671478065
293.05254706895022
293.05252830298679
293.05251047204183
293.05249389776947
293.0524804103174
293.05246863987156
293.05245781193884
293.05241352305683
293.05175747826405
293.04203472452093
292.93205415391179
292.01039904652004
295.15684323780096
293.22642677109724
293.065543317319
293.05356277889257
293.05283380739485
293.05279006217808
293.05278134015873
293.05277471044582
293.05276842913679
293.05276204769405
293.05275519063775
293.0527475143964
293.05273872997174
293.05272860951806
293.05271699962412
293.05270383222518
293.05268907623781
293.05267277367432
293.05265515358224
293.05263649098168
293.05261712685621
293.05259745011392
293.05257779610895
293.05255854512649
293.05253957466647
293.05252176101828
293.05250625643009
293.05249222359538
293.05247854017017
293.0524336977835
293.05179692931335
293.04233632583077
292.93518637999409
292.02812857831208
295.19674371182435
293.23207026520237
293.06597810947005
293.05357626433204
293.0528259315704
293.052784527406
293.05277946876072
293.05277661888715
293.05277411054317
293.05277140102567
293.05276804812166
293.05276364746646
293.05275786436744
293.05275043748725
293.05274119630513
293.0527300143732
293.05271681918578
293.05270174500475
293.0526849758856
293.05266677855951
293.05264748744207
293.05262748123562
293.05260714291938
293.0525866982839
293.05256646703015
293.05254723543868
293.05252962530989
293.05251333827766
293.05249711258244
293.05245132303281
293.05183308641284
293.04266128203523
292.93862882205116
292.04642610139132
295.23500711122182
293.23743037902352
293.06636875459867
293.05358475202621
293.05281671255625
293.05277828449852
293.0527774328732
293.05277889706741
293.05278067854624
293.05278211048221
293.05278267412791
293.05278189638858
293.0527793883652
293.05277484788547
293.05276806858171
293.05275881950661
293.05274710341513
293.05273301349803
293.05271674235991
293.05269856624813
293.05267882532286
293.05265789253184
293.05263614198287
293.05261416501338
293.0525923832538
293.05257120677516
293.05255128388507
293.05253263348834
293.0525139785737
293.05246717840748
293.05186935836088
293.04302057690234
292.94232409511568
292.06534441935128
295.27179417075172
293.24251155074677
293.06671335099406
293.05358761542936
293.05280587902212
293.0527712460069
293.05277529966901
293.05278171659734
293.05278838508099
293.05279448956384
293.05279943334256
293.05280266660128
293.05280374158133
293.05280229876854
293.05279806047679
293.05279076017416
293.05278037191846
293.05276698117325
293.05275080373048
293.05273215728437
293.05271143637418
293.05268910365436
293.05266567058516
293.05264169771539
293.05261770008019
293.0525941476011
293.05257165366049
293.05255044592712
293.05252931090797
293.05248154863602
293.05190680543194
293.04341278723558
292.9462320519176
292.08495109713209
295.30725068448317
293.24732015553661
293.06700794057502
293.05358394091155
293.05279312504439
293.05276331073458
293.05277312084837
293.05278525454332
293.05279751307154
293.05280891081833
293.05281878060873
293.05282647985808
293.05283149222618
293.05283338548287
293.05283180045126
293.05282640956028
293.05281714575489
293.05280409649714
293.05278752263342
293.05276783409948
293.05274554219727
293.05272121448394
293.05269546272876
293.05266893146342
293.05264224481778
293.05261592953741
293.05259062436187
293.05256664813669
293.0525429023844
293.05249420294695
293.05194493941548
293.04383316474667
292.95033370998118
292.10532604287323
295.34151296711667
293.25186658690416
293.067246600538
293.05357275166483
293.05277847473229
293.05275478526437
293.05277139927824
293.05279018618484
293.0528088858581
293.05282632774669
293.05284177920316
293.05285448893596
293.05286386199981
293.05286937982555
293.05287058292146
293.05286703162665
293.05285862508572
293.05284547162182
293.05282790400923
293.05280645799922
293.05278180736576
293.0527546903192
293.05272587544505
293.0526961182656
293.05266615307534
293.05263659936156
293.05260816844066
293.05258116299416
293.05255461436496
293.05250494141683
293.05198317052651
293.04427825062203
292.95462101903564
292.12655946185095
295.37471167275936
293.25615926124175
293.06741922071427
293.05355291419971
293.05276229150394
293.05274641701084
293.05277112264508
293.05279772153642
293.05282390684567
293.05284833066497
293.05287019292285
293.05288862489948
293.05290292660834
293.05291246626433
293.05291665348773
293.05291474223253
293.0529066357584
293.05289260288725
293.05287317342646
293.05284905903756
293.05282111015254
293.05279027707536
293.05275752246934
293.05272375957236
293.05268983888999
293.05265648018724
293.05262451901433
293.05259413053255
293.05256449735566
293.05251372711518
293.05202109527113
293.04474502801645
292.95908955615238
292.14875234188611
295.40697444475995
293.2601918935182
293.067512403281
293.05352441210044
293.05274656867476
293.05274087836614
293.0527755985122
293.05281190929662
293.05284745836076
293.05288074372788
293.0529108682353
293.05293681893687
293.05295773378793
293.05297280202586
293.05298097621471
293.0529794348933
293.05296841107565
293.05294976999528
293.05292548025295
293.05289667896062
293.05286401932113
293.05282831792096
293.0527906203518
293.05275199863974
293.05271340559221
293.05267569705364
293.05263976994854
293.05260561473989
293.05257258105229
293.0525205057786
293.05205829836859
293.0452309901936
292.96373544579382
292.17202147557549
295.43842041280402
293.26390192676934
293.06751305445522
293.0534961093154
293.05274451489254
293.05275517580691
293.05280689237765
293.05286121873132
293.05291570432331
293.05296867296073
293.05301888759823
293.05306481974719
293.05310497007514
293.05313779011362
293.05315957016336
293.05314923156629
293.05310877117068
293.05305400087298
293.05300078639215
293.05295446515561
293.05291177599702
293.05286893222848
293.05282495830028
293.05278049321987
293.0527364991388
293.05269400583381
293.05265369985801
293.0526154554085
293.05257873818192
293.05252513299132
293.05209430438299
293.04573332036767
292.96855440117434
292.19650388128451
295.46915894210883
293.2670940665185
293.06744177288977
293.05353106080014
293.05284426014322
293.05290940363824
293.05302684363448
293.05315897639076
293.05330324824513
293.05345670399527
293.05361569687682
293.0537750159753
293.05392839604042
293.05406823094887
293.05417660789442
293.05410286623339
293.05384899407738
293.05352197580135
293.05324503134096
293.05307164634058
293.05297634771171
293.05291406739951
293.05286039449612
293.05280870393352
293.05275852585942
293.05271093432975
293.05266586332448
293.05262331435961
293.05258272859442
293.05252741363205
293.05212862272106
293.04624888816102
292.97354183661935
292.22236248475008
295.49931780612934
293.26924118108991
293.06747720559935
293.05397272380748
293.05355287758732
293.05391912570957
293.05441220737578
293.05499543307133
293.05566403985205
293.05640625638966
293.05720260271403
293.05802321159501
293.05882899236616
293.05956914827522
293.06015601725602
293.05977012043195
293.05835559250522
293.05643472528459
293.05472110626846
293.0536498025125
293.05316700964971
293.05298524633429
293.05289971485894
293.05283633225702
293.05277902932795
293.05272581579629
293.05267574425125
293.05262880420173
293.05258429916182
293.05252717713103
293.05216078376998
293.04677443233487
292.97869343329228
292.24979542630695
295.52932450490823
293.26958124204003
293.06851182381507
293.0563638098094
293.05721673546481
293.05909476560765
293.06143900749612
293.0641972448812
293.06735299141104
293.07085069703606
293.07459273225169
293.07842178950432
293.08212097854107
293.08540632127063
293.08786866213671
293.08631771448626
293.08033759351366
293.07165587655214
293.06313873158518
293.05718564088858
293.05427186876676
293.05326274187536
293.05297358590923
293.05286688246849
293.05279785423829
293.0527379637042
293.05268280855688
293.05263160493672
293.05258333838191
293.0525244560842
293.05219049145421
293.04730613526289
292.9840052993037
292.27905037595531
295.56084131426934
293.26760961704611
293.07365724854617
293.06583143372063
293.07165600112654
293.079146533808
293.08824057391348
293.09870904596471
293.11054504496673
293.12353762457587
293.13731003260591
293.15120368127924
293.16428374431439
293.17534049797774
293.18285844089382
293.1783597150295
293.1598852691838
293.13119895186247
293.09999753057053
293.07493920390976
293.06058010030318
293.05491943325609
293.05332150074662
293.05293936964074
293.05281892281118
293.05274682728242
293.05268630610306
293.05263129820872
293.0525797907743
293.05251946718158
293.05221768974775
293.04784049533436
292.98947941643428
292.31044799081076
295.6030070606152
293.26656530119726
293.09090869394709
293.09350266947962
293.11375360300701
293.13553114125142
293.16232333568507
293.19223956515464
293.22604790735767
293.26304691257531
293.3022246455098
293.34139718416895
293.37734002275783
293.40589266647635
293.42285543406103
293.41333506519328
293.37178551885955
293.30279068261984
293.21950524376865
293.14216722967177
293.08906423041515
293.06373897038344
293.05539649357098
293.05334352816595
293.05288499662788
293.05275612096858
293.05268551003365
293.05262723715407
293.05257353609056
293.0525125441751
293.05224260974569
293.04837460309056
292.99512581763707
292.34441448037654
295.67254587705969
293.32517898727781
293.1372768540902
293.1529659655543
293.20197844174095
293.24688818670791
293.30679087904275
293.36928591802928
293.44060456025562
293.51992545528327
293.60610112350759
293.69422387005596
293.77519648342786
293.83603260328988
293.86636893677098
293.85618962957329
293.79180828433095
293.67204777310559
293.50885487820415
293.33275644610995
293.18705359652756
293.10074609261437
293.06614003089027
293.05569817387124
293.05328020581413
293.05280293799984
293.0526829558853
293.05261879155256
293.05256440220984
293.05250424885901
293.05226610206893
293.04890706461515
293.00096582530676
292.38152930268785
295.74339746590124
293.805695352648
293.30696645005884
293.27975878710987
293.36415862204308
293.436958621077
293.51975425727198
293.61172396017116
293.7156798050467
293.833501947066
293.96520342229144
294.10682619250298
294.24728104618242
294.36494608511833
294.42990000492728
294.44535878774064
294.39551715044911
294.26257276688915
294.03827370966212
293.74356004087309
293.44494104960125
293.22423311224043
293.10925543506426
293.06675184070156
293.05540194909224
293.05310400145061
293.05270318241617
293.05260717703214
293.05255218581004
293.05249514258054
293.05228910865719
293.04943661678521
293.00705115511289
292.42261767656936
295.82106322359948
294.45487721170088
294.02331616770863
293.87115434641061
293.78742389592168
293.76614515868903
293.79175093940233
293.85381734189997
293.94336617427621
294.05579831888207
294.18828039577534
294.33757162982249
294.4983064533223
294.66077007559386
294.80536992527647
294.90313221907002
294.9391779449856
294.88711494950957
294.71094915254611
294.38636983321805
293.94927402047216
293.52471313320831
293.23876858836212
293.10655608458217
293.06427107220804
293.05456325363605
293.05286736509908
293.0526040551689
293.05253773272784
293.05248668909883
293.05231564198641
293.04997823784913
293.01351157837502
292.46893954212482
295.9167501460758
295.1561712813139
294.8884150867388
294.78586655271181
294.73601565345132
294.70575406211765
294.67103018893783
294.62911111211844
294.59063765530379
294.57049046894264
294.57998980545773
294.62400303450067
294.70259984719939
294.81426979541919
294.94566542434558
295.0785399097328
295.19701280824216
295.27171563056532
295.24835807046043
295.04959785555428
294.62354795632859
294.04527063887747
293.52390715860247
293.21369093197205
293.09210117973163
293.05972073460987
293.05355241133583
293.05265093012713
293.0525241409801
293.05247867813881
293.05234250406221
293.05049824974338
293.02037831988997
292.52292006159979
296.07009103696652
295.79965236172546
295.69702096842786
295.65222035161787
295.63080612823956
295.62017579131577
295.61296047100222
295.60494353228643
295.59398250748535
295.580223249364
295.56672759431524
295.55849473238283
295.55929678143349
295.5666008546134
295.57803699292811
295.59417620095257
295.61429475307767
295.63229734780668
295.62496923408554
295.52928170433921
295.23427064963829
294.67006789699025
293.96955398974251
293.42026431773542
293.15334722428344
293.07169866208142
293.05515320344932
293.05277797445046
293.05251226756462
293.05247193003498
293.05236985230005
293.05092069807461
293.02733822099543
292.58822349614258
293.99931472147551
293.08976071067775
293.05448615760076
293.0527534092484
293.05263944493129
293.05261738742229
293.0526057934008
293.05259795319535
293.05259213722235
293.05258750108976
293.05258349756338
293.05257976309184
293.05257599311693
293.05257170919577
293.05256444646329
293.05253196857427
293.05227848958691
293.05036400658878
293.03874051781196
292.98743420119928
292.83744770353593
292.56447233521624
292.25342417810049
292.01452923321352
291.87692541441817
291.81192438999949
291.78685733118903
291.78230132845522
291.78879294779927
291.80175917147068
291.81261905447315
291.80823669516076
291.77253568709517
291.65826155352727
294.14436745476462
293.10067501327381
293.05513971984914
293.05286013279459
293.05270746198886
293.05267154943448
293.0526494477445
293.05263315155167
293.05262032121198
293.05260958920462
293.05259999149348
293.05259078742063
293.05258131093569
293.05257076250734
293.05255723629716
293.05252996209248
293.052409135853
293.05165239863487
293.04727063106253
293.02713866410613
292.96000480545894
292.80894255377689
292.58568984258227
292.35898852024422
292.18718701572249
292.08737880311776
292.04981270110716
292.05661408834681
292.09047889743073
292.1355658015587
292.17470799621771
292.17278889195518
292.07767242180358
291.74398422501986
294.26207573931742
293.11173050449457
293.05591733825577
293.05295883854279
293.05276346364906
293.05271873489221
293.05268931837622
293.0526662842463
293.05264734336288
293.05263099124056
293.0526160709901
293.05260162509899
293.05258676205779
293.05257051583504
293.05255149798711
293.05252583225808
293.05247167824024
293.05224446891174
293.05100341808168
293.04491236515543
293.02160498999876
292.95741946001726
292.83603284344917
292.67602228899216
292.51898378256448
292.39907637589727
292.33285071274003
292.32406351157903
292.36781353482991
292.45046951361149
292.52736490276351
292.55315927843509
292.40612402081047
291.79724363563508
294.36236343410997
293.12285897489062
293.05673158261794
293.05304316562871
293.05280502221729
293.05275535834767
293.05272181588646
293.05269437884982
293.05267101552374
293.05265030393736
293.05263108018221
293.05261231966085
293.05259304160762
293.05257221409028
293.05254860617373
293.05252031169539
293.05248167542499
293.05240172252712
293.05209473426902
293.05061618490447
293.0443158612772
293.02364789022192
292.97484754449664
292.89321983912578
292.79265462185066
292.69704465312776
292.62693732166372
292.59556843515907
292.60858155513813
292.68139868700183
292.78303474259116
292.84167558677024
292.70763276295327
291.83931324784209
294.44997019685525
293.13244716921884
293.05749821881034
293.05311267592384
293.05283422105185
293.05278246027956
293.05274729995068
293.05271749692554
293.05269134619277
293.05266762588667
293.0526452786662
293.0526233206557
293.05260079047235
293.05257668929676
293.05254990448788
293.05251908311078
293.0524821233841
293.05243266209555
293.05233718534168
293.05201342526328
293.05064803133371
293.04557237864697
293.0311131745745
293.00110975903448
292.95406583477177
292.90064714632695
292.85728054380877
292.83706635404752
292.84742607807863
292.88560725214734
292.92916869371857
292.96470052631355
292.91447143879088
291.87663186005085
294.52817670365852
293.14145339025845
293.0582428996492
293.05317259841195
293.05285456597431
293.05280219890255
293.05276704643404
293.05273639954146
293.05270882055413
293.05268331085176
293.05265896499571
293.05263490100742
293.05261024406303
293.05258409337858
293.05255548576133
293.05252335839947
293.05248647814369
293.0524430003195
293.05238731605561
293.05229121441215
293.05201620803109
293.05102376187426
293.04782508880703
293.03958564533224
293.02377474087388
293.00294318392702
292.98430977618119
292.97602391080744
292.9825916711012
292.99632135966789
293.01068682831226
293.01745448774307
292.93509732610573
291.91095179748021
294.59893575283638
293.14994566362896
293.05896239654902
293.05322534299421
293.05286838692302
293.05281623810225
293.05278215016426
293.05275177409402
293.05272384597475
293.05269758707544
293.05267224823353
293.05264707603976
293.05262131166035
293.05259418263864
293.05256489343941
293.05253262479602
293.05249653565613
293.05245574423361
293.05240903639407
293.05235267373632
293.05226852021116
293.05207667606447
293.05150999550051
293.04985336782471
293.04609551232852
293.0403673503281
293.03474637664448
293.03241686874452
293.03467072186169
293.03814282370269
293.04111157420232
293.03613635977905
292.93551476121638
291.92780289255205
294.66365480911907
293.15799681965439
293.05965736498285
293.05327275982648
293.05287749574461
293.05282598321037
293.05279362423096
293.05276430795095
293.0527368723499
293.05271072220808
293.05268525206861
293.0526598356131
293.05263383471208
293.05260660960585
293.05257753154046
293.0525459958746
293.05251143947902
293.0524733693191
293.05243139369958
293.05238509800972
293.05233291061393
293.05226659193437
293.05215301334147
293.05187955989038
293.05123131319482
293.05013064746788
293.04895150568518
293.04845008087551
293.04892226596803
293.04946121890907
293.04936854092693
293.04077861124199
292.93127429849898
291.94178954537529
294.7233970475969
293.16566675858479
293.06032801432355
293.05331593329225
293.05288311951978
293.05283244982536
293.05280223526756
293.05277453585359
293.05274824687871
293.05272290747774
293.05269802958378
293.05267309626265
293.05264758110377
293.05262096845263
293.05259277798393
293.05256258526339
293.0525300393665
293.05249489149173
293.05245704541028
293.05241662089185
293.05237394133343
293.05232913105237
293.05228035676737
293.05221647060324
293.05211195211194
293.05194967637664
293.05177485338481
293.05169810861582
293.05176323356352
293.05176803793682
293.05110820590505
293.04142309302125
292.92820312585218
291.95601721738046
294.77896841449308
293.17299649696571
293.06097574800094
293.05335546490596
293.05288607871177
293.05283634448773
293.05280852270135
293.05278283486996
293.05275819487588
293.05273422591733
293.05271052604979
293.05268666552013
293.0526622118166
293.05263675711359
293.05260994397321
293.05258148924196
293.05255120118682
293.05251899816085
293.05248494312241
293.05244930616533
293.05241262759637
293.05237573680841
293.05233965908377
293.05230456003039
293.05227016304872
293.05223746427697
293.05221243291254
293.05220350476264
293.05221559633031
293.05217041582938
293.05143901168128
293.04136106545957
292.92731270964379
291.97079233930782
294.83099078324454
293.18001636800744
293.06159920350314
293.053391738399
293.05288700714323
293.05283826355662
293.05281299351867
293.05278962119178
293.0527670242551
293.05274487027413
293.05272281201752
293.05270048685645
293.05267754067063
293.05265365101911
293.05262855115785
293.05260205408018
293.05257407667767
293.0525446577148
293.05251396427701
293.05248231480374
293.05245024886176
293.05241855588798
293.05238827092836
293.05236037994371
293.05233591382807
293.05231730610137
293.05230706612264
293.05230351810934
293.05230826476077
293.05226198857002
293.05153088420496
293.04135895285384
292.92797759667928
291.98608580188312
294.87994904608576
293.18674484395734
293.06219365456167
293.05342494750897
293.05288638440868
293.05283871822741
293.0528161485297
293.0527953473798
293.05277512038481
293.05275514852912
293.05273511769911
293.0527147130972
293.05269363919103
293.05267163853489
293.05264850709989
293.05262411200329
293.05259841824881
293.05257152050297
293.05254367060883
293.05251524753879
293.05248671469735
293.05245873301135