/*--------------------------------*- C++ -*----------------------------------*\
  =========                 |
  \\      /  F ield         | OpenFOAM: The Open Source CFD Toolbox
   \\    /   O peration     | Website:  https://openfoam.org
    \\  /    A nd           | Version:  12
     \\/     M anipulation  |
\*---------------------------------------------------------------------------*/
FoamFile
{
    format      ascii;
    class       volVectorField;
    location    "10";
    object      U;
}
// * * * * * * * * * * * * * * * * * * * * * * * * * * * * * * * * * * * * * //

dimensions      [0 1 -1 0 0 0 0];

internalField   nonuniform List<vector> 
39304
(
(-0.020439460706347824 0.013286393772371379 -0.0012845982105969115)
(-0.020091755356641032 -0.0019246035945847399 -0.00063810195915678576)
(-0.016191676204124088 -0.002110566210346239 -0.00033075938685677765)
(-0.013517690996226843 -0.0010312446088398498 -0.00018801622583003016)
(-0.012209294773091571 -0.00052228463816865218 -0.00011115912235754289)
(-0.011421047975027682 -0.00025107395590574078 -6.7633477954903229e-05)
(-0.011021547683674526 -9.9717869826003062e-05 -4.3025178736233925e-05)
(-0.010855065117045086 -4.9075098283999381e-06 -2.8709481514379854e-05)
(-0.010855738017838406 6.3498724876439805e-05 -2.0345328504521771e-05)
(-0.010988466535188392 0.00012029055258903517 -1.6163138705145884e-05)
(-0.011238974253842167 0.00017480744634585784 -1.4727063907077902e-05)
(-0.011609464186066341 0.00023526332515703271 -1.5668559650829294e-05)
(-0.012116246962868575 0.00031033084355105897 -1.9471789406907935e-05)
(-0.012792221688665291 0.00041185491210573877 -2.7858979879473233e-05)
(-0.013692804024178494 0.00055898511267731335 -4.5087377431849613e-05)
(-0.01490751941090342 0.00078649158174349675 -8.0754828347309724e-05)
(-0.016580571016306028 0.0011627678251192222 -0.00015640823618820468)
(-0.018946163753065411 0.0018282361599916458 -0.00031725054356003275)
(-0.022385475696670758 0.0030554231071156976 -0.00063222520922083601)
(-0.027553229904768075 0.0052167469820185771 -0.0011165232430485857)
(-0.035599574183929124 0.0082939699572237395 -0.0015570334315314542)
(-0.047756894842412564 0.011049661717101566 -0.0015637273030948402)
(-0.063445298576594603 0.011767782909036233 -0.0011329963440055999)
(-0.079810577328323987 0.010478948568736993 -0.00079140175537248815)
(-0.09443933079664199 0.0085730052796202348 -0.00090769667185271717)
(-0.10670291701825922 0.0068348708804848671 -0.0013892702653398213)
(-0.11674880592434672 0.0052150291514905696 -0.0019980170936056601)
(-0.12464955404175486 0.0034242599857128931 -0.0025950786784416165)
(-0.13021148320188825 0.0011936876322017828 -0.0031231953738188934)
(-0.13274401368120448 -0.0017792677760437479 -0.0035358360053674653)
(-0.13018569817745165 -0.0059983997871287083 -0.0038268155955906657)
(-0.11849198381519326 -0.012854885476897216 -0.004038818523935647)
(-0.092156469685682099 -0.02637271922201782 -0.0043906951224463022)
(-0.052178668879888049 -0.055333474790810883 -0.0051060012802848637)
(-0.015641909716187053 0.030270968728850069 -0.001142822637051216)
(-0.014056296011279458 -0.0017107270362110441 -0.0006407048189232612)
(-0.015439413975524053 -0.0034611971164438043 -0.00036863733376146004)
(-0.013839508847034609 -0.0020300916944558881 -0.00020784457259777437)
(-0.013353737148429981 -0.0011828001701164265 -0.00012985812843188872)
(-0.012855077668508685 -0.00064165589612532161 -8.1456758546176379e-05)
(-0.01257523184753523 -0.00029083485579501408 -5.4436256454430824e-05)
(-0.012448298957790132 -4.2917847974060472e-05 -3.7993858926767432e-05)
(-0.012449730401276265 0.00015163715653383731 -2.7841307532468671e-05)
(-0.012563947637762892 0.00032337999951161529 -2.1324292201271847e-05)
(-0.012786784930513294 0.00049433299257469279 -1.7580180400064849e-05)
(-0.013122831355676094 0.0006850561632166163 -1.6236332010970381e-05)
(-0.013586520446321217 0.00091854592633925682 -1.7565899399010545e-05)
(-0.01420309126744005 0.0012255717971996543 -2.2796304161760001e-05)
(-0.01501052671361299 0.0016526700392302431 -3.4818716839582455e-05)
(-0.016061325137913123 0.0022759201878546171 -5.9632954657714555e-05)
(-0.017421896705612634 0.0032245990840639839 -0.00010930624388566692)
(-0.019162469562098872 0.004715081352975983 -0.00020580953054156285)
(-0.021323976690358855 0.0070652822581480498 -0.00037593217492140851)
(-0.023891737834067034 0.01056775670465491 -0.0006011802784409104)
(-0.026986186627396973 0.015049313282098319 -0.000702632893542401)
(-0.031416264749393484 0.019322719458684991 -0.00034414940462371873)
(-0.038491583151437615 0.021545448676761541 0.00055619079959228108)
(-0.048274952923908834 0.020955657617945458 0.0015298983176812576)
(-0.059066988655352162 0.01875580465392393 0.002104442789049078)
(-0.069002345599786366 0.016458904073151912 0.0022215118968167856)
(-0.076919737906661623 0.014512655173755763 0.0020595692599145519)
(-0.082335271237560292 0.012509531685733793 0.001784343704113649)
(-0.085102763850387314 0.0097770136634090475 0.0015128809456509227)
(-0.084852554676786485 0.0054741543197538815 0.0013309278550352663)
(-0.080679479478375254 -0.0016458774443791927 0.0013977569644396772)
(-0.073517139057521927 -0.013489543833492292 0.0012993722581760942)
(-0.058847240612074955 -0.038113590566935612 0.0008046496947484138)
(-0.0274340444802566 -0.095763583931321714 -0.00041599242539307706)
(-0.012805160828409675 0.045133367157163672 -0.0010735771779960364)
(-0.011465017548561838 0.0010510809870868431 -0.00057637188501368441)
(-0.014085152779107595 -0.003041404668853775 -0.00032213727439003593)
(-0.012791514938475239 -0.0021843620271510757 -0.00018435050615369218)
(-0.012749249874011808 -0.0013866376808351511 -0.00011631387465260824)
(-0.01245888796693429 -0.000788180361878268 -7.3831609975239838e-05)
(-0.012318417058902156 -0.00035198349172531541 -5.0702166015946097e-05)
(-0.012270274449788118 -1.5074072257602699e-05 -3.6372834559612772e-05)
(-0.012311904407749258 0.00026674116199965108 -2.7246479427707738e-05)
(-0.01243893497489424 0.00052630849870818669 -2.1518619924246404e-05)
(-0.012651087472725876 0.00079118638397931409 -1.8311926643244072e-05)
(-0.01295214556811632 0.0010881690854654448 -1.7298849425455906e-05)
(-0.013350989910020672 0.0014479860538534339 -1.8681880112335888e-05)
(-0.013861023057036721 0.0019105803685457363 -2.3346732983265632e-05)
(-0.014498462609079379 0.0025322852382101825 -3.3222215414402531e-05)
(-0.015277439330536657 0.0033965580710898511 -5.1923043889270504e-05)
(-0.016197748854760354 0.0046297096388943785 -8.5605397525701638e-05)
(-0.017218841401408704 0.0064204458905366708 -0.00014282115354643393)
(-0.018216787678277155 0.0090265778680715166 -0.00022884341615407106)
(-0.018956452123531121 0.012703017863574511 -0.00032384934417846055)
(-0.019209159957310155 0.017420522299312471 -0.00033745239367895583)
(-0.01918416830280073 0.02237300914472691 -8.5802824621854866e-05)
(-0.01996980296248391 0.025889833376336428 0.00053323819241413801)
(-0.022791340207973153 0.026447223938628927 0.0013101239891382434)
(-0.02760492907011837 0.024025798516975932 0.0018948951847619262)
(-0.0331409136002409 0.019793543851649806 0.0020849964843753037)
(-0.037916159978720956 0.014734282359129845 0.0019518043295203903)
(-0.040854800567175421 0.0088297273944867947 0.0016648799550425029)
(-0.041204591691540997 0.0014954212134351715 0.0013641831850816299)
(-0.038082389894938236 -0.0077824953152855212 0.0013057042798052245)
(-0.035668080906468197 -0.016280267920753492 0.0014149966673428895)
(-0.032678834820987636 -0.029056901540588709 0.0011978153868073163)
(-0.032844175028149222 -0.058199738457500809 0.00093840258470503219)
(-0.014045959617264342 -0.1330034406595301 8.4074783385781993e-05)
(-0.011025236110425043 0.05746447652632429 -0.0010028978632075831)
(-0.010056947696382506 0.0031143673051912684 -0.00048571491525147557)
(-0.012711369260944766 -0.0026037111831675426 -0.00028146430207582371)
(-0.011774471789210287 -0.0021460587443709379 -0.00015833424401848678)
(-0.012018029745187859 -0.0013993673963692012 -0.00010111459963821679)
(-0.011909714273146733 -0.00079785417939944275 -6.4684886354286983e-05)
(-0.011895659353199584 -0.00032450195478342245 -4.5397198034799997e-05)
(-0.011923632798362144 6.3811858726961815e-05 -3.3155033616775918e-05)
(-0.012003517211144977 0.0004041376612587274 -2.5609637985465636e-05)
(-0.012138120312479302 0.00072678554099770039 -2.083856007534987e-05)
(-0.012328474742071747 0.00106031902684187 -1.8154871343603759e-05)
(-0.012576559574047862 0.001433804157083604 -1.7359548327522399e-05)
(-0.012884796541889555 0.0018805339001570791 -1.8572847333051418e-05)
(-0.013254531813251801 0.0024420306622025901 -2.2402464558961422e-05)
(-0.013682742239358097 0.0031729177507910642 -3.0060396848705621e-05)
(-0.014155146297620052 0.0041468780995513295 -4.3613841990671993e-05)
(-0.014633418941033228 0.0054628834089956602 -6.6106438573202136e-05)
(-0.015033438591256212 0.0072485837473600006 -0.00010076937779954798)
(-0.015194597890338777 0.0096518751458306989 -0.00014716371764027491)
(-0.014857884880440295 0.012797503198366873 -0.00019060762818685551)
(-0.013717747449246474 0.016664630856017628 -0.00018421045544195758)
(-0.011648812129321739 0.020852907670713194 -3.669025495752495e-05)
(-0.0091060144598012014 0.024385996232086139 0.00032294671510878632)
(-0.0071076667782316322 0.025974029629331017 0.00082491162746379523)
(-0.0064533455147606578 0.024834141456450878 0.0012911511446131077)
(-0.0068956366008501614 0.021156618700386449 0.0015550081922263649)
(-0.0074942402888111938 0.015826195214639141 0.0015986145764335519)
(-0.0070166536064500138 0.009388495018864032 0.0014780150645194413)
(-0.0063056615078264351 0.0022526970701203684 0.0013010340299419378)
(-0.0031777460756627933 -0.004942152851652064 0.00089216910644621594)
(-0.0042120697198573661 -0.011820073929262891 0.00090454896560711383)
(-0.00047775006024395299 -0.023988262051325485 0.00046058122787419846)
(-0.013337038041932399 -0.055615921999719341 0.00037847661017444329)
(-0.0061258474815631611 -0.14908289222937593 7.739544845392771e-06)
(-0.0097810289894388856 0.0683729538266767 -0.00093811217814772927)
(-0.0091501851009521528 0.0054690604611569793 -0.00042197275206726123)
(-0.011703995975447707 -0.0019561361331641783 -0.00024482272017030388)
(-0.010966512312288033 -0.0018718062356746514 -0.00013618892303489757)
(-0.011358043451116535 -0.0012333079822196317 -8.8038395626805323e-05)
(-0.011373591595409642 -0.00067792006434881636 -5.6840056997048375e-05)
(-0.011451328307923161 -0.00021087714136404522 -4.0822934589319153e-05)
(-0.011538376043723625 0.00019294920685419348 -3.0592142116423591e-05)
(-0.011647421201977811 0.0005599676635663312 -2.4220231344603114e-05)
(-0.011782627052192992 0.00091634897257814073 -2.0258113050056385e-05)
(-0.011945141412217353 0.0012880564504389399 -1.808387267516007e-05)
(-0.012134205583157748 0.0017026919999855086 -1.7479267042997429e-05)
(-0.012346412313416381 0.002191734017820174 -1.8519134365116273e-05)
(-0.012574005258688143 0.0027927673620279851 -2.1585509224807508e-05)
(-0.012801184522898044 0.0035519356162583299 -2.7412333529274577e-05)
(-0.012997830899713601 0.0045259734059347198 -3.7155363966449677e-05)
(-0.013109671412539959 0.0057824909911897791 -5.230706219468875e-05)
(-0.013044394022750459 0.0073958267434666956 -7.4067275550449964e-05)
(-0.012655616720037541 0.0094333679089031487 -0.00010127095050800073)
(-0.011733587583613722 0.011924161478944716 -0.00012551689542157616)
(-0.010028266675890978 0.014800088343725081 -0.0001233219452556139)
(-0.0073511336630449958 0.017807848493910618 -5.0485335437677934e-05)
(-0.0037910844230639022 0.020423683513464224 0.00014093599994516163)
(0.00018648928924669636 0.02187524975829825 0.00043591885565195335)
(0.0038093289235585537 0.021261645544254928 0.00078460014042359364)
(0.0064637278495471131 0.018173079097227623 0.0010218551889400896)
(0.0082045174389949842 0.012948970773639594 0.0010883070133274916)
(0.0095524830730644352 0.0058906557829988982 0.00099699002722376611)
(0.010664516121275202 -0.0028681672729516825 0.00079996854645687896)
(0.011948650165314855 -0.010742672265314264 0.00051908309044003344)
(0.010195620218046238 -0.017200345553068479 0.00030714078992122654)
(0.012908456887237102 -0.02168930956393229 0.0001994834348443766)
(-9.1689434424591118e-05 -0.044721780470135052 -0.00016315742470954968)
(-0.0010193497317158384 -0.15377002083497837 -0.00010161945694822624)
(-0.0088659942300201213 0.078334547653811731 -0.00087918740722592401)
(-0.0085005232471939574 0.0076709128435457265 -0.0003716286846808444)
(-0.010892556035596112 -0.0013084775099210832 -0.00021495935088414626)
(-0.01030569212722888 -0.001516906874755907 -0.00011792201500232408)
(-0.010773024250859598 -0.00097894972882781256 -7.6997843205964858e-05)
(-0.010874142641801962 -0.00048084467407745051 -5.0028305816251191e-05)
(-0.011015668128202484 -4.0789237683362641e-05 -3.6602931568234831e-05)
(-0.011145165839085073 0.00035463846263962626 -2.8133724349820196e-05)
(-0.011273918978368989 0.00072425102907315347 -2.2759346811894067e-05)
(-0.011404709564671463 0.0010890292311000057 -1.9493757157220369e-05)
(-0.011537362016943305 0.0014711631140207945 -1.7773587369316001e-05)
(-0.011668379807613233 0.0018949040092003633 -1.7368917977485266e-05)
(-0.011790212232016498 0.0023873998016818916 -1.8304810553105161e-05)
(-0.011889480684865323 0.002979674925388752 -2.0782890025194642e-05)
(-0.011943866837892296 0.0037072141424670888 -2.5246896076427908e-05)
(-0.011917451843382665 0.0046094038757459269 -3.2329276668697109e-05)
(-0.01175437873395717 0.0057269196586111557 -4.2778456489414678e-05)
(-0.011371366904606762 0.00709509967774174 -5.7066481614053155e-05)
(-0.010651293204006776 0.0087309028544813906 -7.4383200596784622e-05)
(-0.0094431690073357305 0.010610984292190123 -9.0565663942619712e-05)
(-0.0075788620490528213 0.012640111297937278 -9.493049460303999e-05)
(-0.0049190558625367194 0.014617146944586872 -6.7569217807960229e-05)
(-0.001462222872483066 0.016218231862513477 1.8866824945561788e-05)
(0.0027141179969358631 0.016991994482035481 0.00017876450313459563)
(0.0069698984583823282 0.016258207414672078 0.00040008858392032225)
(0.010752466087969882 0.013677253812331161 0.00057584970898911852)
(0.013596257471296572 0.0093505551638514914 0.00066444195497074104)
(0.015637711652861867 0.0037294843345835652 0.00065883536431030705)
(0.016296714533836971 -0.0023554419305466204 0.0006217028090704863)
(0.015648935094805909 -0.0081772880163599182 0.00049233482682428686)
(0.012501479021217793 -0.013874626078999107 0.00034099449557425092)
(0.01133376228483257 -0.018871879614392489 0.00012590550348363263)
(0.0038206941785462497 -0.040140068524767064 -0.00028915964323867439)
(0.0016419591512571265 -0.15184996930689054 -9.9031088822084407e-05)
(-0.0081665215627081695 0.087594874452074284 -0.00082488708287367597)
(-0.0080165684875489248 0.0097859426651777971 -0.00032756777070571286)
(-0.010242757944277503 -0.00066046633730932171 -0.00019020236902872646)
(-0.009765965790535458 -0.0011148893113021331 -0.0001023497434282452)
(-0.01026475573681386 -0.00067014392034030928 -6.7545502107068127e-05)
(-0.010423142636985813 -0.00023277011514033803 -4.408665711720374e-05)
(-0.010606773255918637 0.00016819011274917398 -3.2804981213343127e-05)
(-0.010765661448319731 0.00053829087886630739 -2.5593866813060908e-05)
(-0.010906322057789698 0.00089108348637385643 -2.1165898683547892e-05)
(-0.011029695942946626 0.0012426948496704953 -1.8567742397454693e-05)
(-0.011133670075267969 0.0016111584651373088 -1.7279417683866262e-05)
(-0.011212526192293978 0.0020164329405228027 -1.7097325511473152e-05)
(-0.011256076969031917 0.002480525545848366 -1.7998789372612065e-05)
(-0.011248194919262409 0.003027391837192547 -2.0065039074982638e-05)
(-0.011164677507673771 0.0036822489845112927 -2.3573615735709032e-05)
(-0.010970238720448201 0.0044699442778316301 -2.8851068843299339e-05)
(-0.01061494967317691 0.0054113038967794225 -3.6275813453333061e-05)
(-0.010031107523847374 0.0065165988195121961 -4.6057882908679554e-05)
(-0.0091322007003526908 0.0077751828535454846 -5.7769855621498412e-05)
(-0.0078174544580300494 0.0091407808441847996 -6.9544316666851429e-05)
(-0.0059852771120760548 0.010514511595177812 -7.6892298732395098e-05)
(-0.0035592099816767458 0.011732168242779275 -7.1880938190586074e-05)
(-0.00054932483542928544 0.012562796756625774 -4.2837256473349519e-05)
(0.0030429878624927647 0.012704981894799038 3.7344265890355727e-05)
(0.0067788966510434279 0.011790676820817641 0.00015304280315810287)
(0.010297337791509086 0.0095847836212140953 0.0002559259696464301)
(0.012981913076231593 0.0061111494372039403 0.0003273045059195705)
(0.014730011654669925 0.0016729810917816875 0.00033926401237345007)
(0.014984906250818789 -0.0031967098103605697 0.00029469782504326099)
(0.014274902155072032 -0.0076369626483748553 0.00021956473188933026)
(0.011591056266143899 -0.011835953235854563 0.00013011148979745824)
(0.0093788576908041647 -0.015553547966947511 2.4132324245747101e-06)
(0.0041262891697670346 -0.035147041126285028 -0.0001990957884726522)
(0.0025156784412891761 -0.14898020563390463 -8.0330702972730331e-05)
(-0.0076138265353494815 0.096301737976567783 -0.00077474762599933353)
(-0.0076371070012994655 0.011806456100544524 -0.00028992965748220005)
(-0.0097116480823516236 -3.2548818393996534e-05 -0.0001698880316730549)
(-0.0093190737159827911 -0.00069600166880082561 -8.933074273283994e-05)
(-0.0098268842551367027 -0.00033302969197953751 -5.9567123242913597e-05)
(-0.010024279803200191 4.5841216783416783e-05 -3.8915814864559546e-05)
(-0.01023591979777692 0.00040119731027890777 -2.921320500838772e-05)
(-0.010414766861405545 0.00073480924432063014 -2.3077343207017855e-05)
(-0.010562665641466766 0.0010561266811241145 -1.9528357536998096e-05)
(-0.010678319518721259 0.0013772771135920629 -1.7533297045930909e-05)
(-0.010757657510393509 0.0017124567700807084 -1.662681876622016e-05)
(-0.010793186492664014 0.0020774076165946736 -1.6629236836372514e-05)
(-0.010773348595409172 0.0024890695918807337 -1.7504938254365318e-05)
(-0.010681568730968918 0.0029649463849948498 -1.9356587832195703e-05)
(-0.010494695646974705 0.0035217922533026802 -2.2234260353131135e-05)
(-0.010181329806273065 0.0041736836470907413 -2.6297178270333292e-05)
(-0.0097004839246016723 0.0049282799974101092 -3.1764586039566988e-05)
(-0.0090009222943780651 0.0057815181778492347 -3.8712985994720717e-05)
(-0.0080228573238469124 0.0067100953147791881 -4.695088060400036e-05)
(-0.0067035184016456277 0.0076623972651258081 -5.5662079484290565e-05)
(-0.0049877334739305427 0.0085501833393571425 -6.2992786004694676e-05)
(-0.0028460211575554836 0.0092439845944412811 -6.5981972702070641e-05)
(-0.00031124538063124574 0.0095750454936836989 -5.9331181694231084e-05)
(0.0026016269455368269 0.0093471502022006714 -2.5714782031662126e-05)
(0.0055628438467517161 0.0083614054120337046 2.6399680532828768e-05)
(0.0083790256800123121 0.0065037076202547044 7.3023332825570647e-05)
(0.010531399266259562 0.0038094140602564367 0.0001138661443541631)
(0.011985395653933461 0.00055162050453297124 0.00012248346930935467)
(0.012111167848203548 -0.0029202327863606333 0.00011710154062669744)
(0.011550092502413237 -0.006127152988532945 8.046541991075475e-05)
(0.0094565794948129646 -0.0093040700871353035 3.5271588026703686e-05)
(0.0074799874981796213 -0.012567103567499092 -5.3455509222469451e-05)
(0.0039082057556882547 -0.031978959344204236 -0.00015345560073943754)
(0.0028188157617439189 -0.14563453136858512 -4.7526675617900139e-05)
(-0.0071646322376010957 0.10455657286727926 -0.00072848764113783292)
(-0.0073248677293322123 0.013738499531945506 -0.00025797859533083049)
(-0.0092673951153151926 0.00057543916113486269 -0.00015374349195826744)
(-0.0089458630181667199 -0.00027269649326162356 -7.8531540909682575e-05)
(-0.0094517937810719606 1.922084765265628e-05 -5.2862411260860019e-05)
(-0.0096776833585836067 0.00034292623377016633 -3.4549279643777309e-05)
(-0.0099099673054994075 0.0006495412976553625 -2.5898658098566607e-05)
(-0.010103452415556101 0.00093915435096372031 -2.0693796782514011e-05)
(-0.010257045488884547 0.001218122286449396 -1.7790089904530869e-05)
(-0.010366961511122612 0.0014954801202843083 -1.6244225452201151e-05)
(-0.010427419498051749 0.001782114706649667 -1.5684616513423853e-05)
(-0.010429926221657311 0.0020901539845235538 -1.5917054598057849e-05)
(-0.01036252879923168 0.0024321736579600846 -1.6876883892033393e-05)
(-0.010209314778099164 0.0028203606867397571 -1.8577273721700167e-05)
(-0.009949582549186391 0.003265344055240915 -2.1037709537731455e-05)
(-0.009557305389009613 0.0037738587108036058 -2.4354754982264349e-05)
(-0.0090009085817321973 0.0043458245784240542 -2.8553021507950619e-05)
(-0.0082439074146841082 0.0049703310055485752 -3.3662961946181758e-05)
(-0.0072476204596785849 0.0056205150088432564 -3.9599644805158538e-05)
(-0.0059762029855799726 0.0062486159144046066 -4.5976526399808239e-05)
(-0.0044048486856729848 0.0067822829659735665 -5.1993429284806685e-05)
(-0.0025322856465187986 0.0071239327019950579 -5.6530442647659184e-05)
(-0.0004042506138323035 0.0071552834707324115 -5.7594716942181503e-05)
(0.0019505367520707708 0.0067503780526836383 -4.5243794437754005e-05)
(0.0042702108593357753 0.0058030257571494177 -2.2120995979379911e-05)
(0.0064578028757852875 0.0042755068886665762 -5.0180015433772831e-06)
(0.0081110542252367714 0.0021931654748005114 1.5213813456347795e-05)
(0.0092797301829269131 -0.00021234713693867185 1.7110122265874166e-05)
(0.0094155062580162929 -0.0028233658305874447 2.0393318159680275e-05)
(0.0091246059846651906 -0.0051270505916059805 3.0278139553292002e-06)
(0.0076474195827977449 -0.0074660239174210215 -1.3806020539875285e-05)
(0.0061740621267200504 -0.010249743769409255 -6.087207570207671e-05)
(0.0037848895999121959 -0.029935997871998989 -0.00010119750455670688)
(0.002940909956823088 -0.14218207150553724 -2.2881972253274119e-05)
(-0.0067910303466191448 0.112431741905127 -0.00068571623845953018)
(-0.007061161769716235 0.015591157415422226 -0.00023034121336832142)
(-0.0088925813427673927 0.0011616028586606518 -0.00013925532113397029)
(-0.0086295609597421379 0.00015141852653361324 -6.9753987385365697e-05)
(-0.0091330444424242967 0.00038068956001493159 -4.7331678329855635e-05)
(-0.0093832976948820829 0.00065217481095895932 -3.0543885912532924e-05)
(-0.0096323421388764124 0.00090910925358571499 -2.2809211719488368e-05)
(-0.0098392186150546412 0.0011497073975987367 -1.8436686577632561e-05)
(-0.009999692215028548 0.0013784500580798196 -1.6064362708049939e-05)
(-0.010107971790816806 0.0016020736339684746 -1.4921042418204962e-05)
(-0.01015685412925179 0.0018287030051418239 -1.4610391630398235e-05)
(-0.010137131510857001 0.0020675222778050646 -1.4988549504557674e-05)
(-0.010037173765014279 0.0023278975689495019 -1.602171647723675e-05)
(-0.0098423612066042762 0.0026182847104293579 -1.7672209934872203e-05)
(-0.0095350560119735854 0.0029450980895926516 -1.9954008243969861e-05)
(-0.0090947287885341562 0.0033105875323228406 -2.284144950064383e-05)
(-0.0084982103646173823 0.0037109940369947983 -2.6248374237344395e-05)
(-0.0077211212343987921 0.0041333594970555344 -3.0156731529563013e-05)
(-0.0067404949972405242 0.0045525117148877596 -3.4488477876155841e-05)
(-0.0055389174414982763 0.004928332191018344 -3.9081553738691003e-05)
(-0.0041105913258250894 0.0052046433296584153 -4.3514930841154682e-05)
(-0.002469569068751325 0.0053107331335223691 -4.7165733948637143e-05)
(-0.00066465216298677832 0.0051667957516866193 -4.8863054492108677e-05)
(0.0012700863811060655 0.0046899130046747159 -4.7537685947039494e-05)
(0.0031339591346087807 0.0038309857709893807 -3.4230044435621099e-05)
(0.0048691122352224076 0.0025881957658012078 -2.8476658425292593e-05)
(0.0061826534462545322 0.00096578814606956191 -1.8154208588507248e-05)
(0.0071556041372120077 -0.00082082621708534447 -2.2734838574666889e-05)
(0.0073533506803494823 -0.0027705268761801772 -1.1078322453490292e-05)
(0.0072698481027979782 -0.0044189720751392613 -1.8293038670456498e-05)
(0.0062994114723474281 -0.006164356548605524 -2.0890085378129756e-05)
(0.0053233072294283194 -0.0086533213325487093 -4.8193443224608759e-05)
(0.0037406952772370649 -0.028552818270207104 -5.6337221933278639e-05)
(0.00300738423773215 -0.13872240249802362 -9.377989809439054e-06)
(-0.006474299651686468 0.11998117970635926 -0.00064621675829468087)
(-0.0068327343759820129 0.017374223054923071 -0.00020654774345676697)
(-0.0085716787156411411 0.0017341823579645958 -0.00012713031857732572)
(-0.0083620611231758294 0.00057703935672192728 -6.2575301861786018e-05)
(-0.008865867453676745 0.00074999911917830004 -4.2141928843298833e-05)
(-0.0091389352950759783 0.00097285295712955591 -2.6833771155867765e-05)
(-0.0094055553690378223 0.0011796076466037142 -2.0039249204119833e-05)
(-0.0096275061517657589 0.0013678536395622127 -1.6268795834980077e-05)
(-0.0097982787437418725 0.0015406896367187457 -1.4306954945820373e-05)
(-0.0099105121766220154 0.0017030201243726289 -1.3482806822856423e-05)
(-0.0099559429512503742 0.0018611445472388939 -1.34398057056083e-05)
(-0.0099248256531637748 0.0020219678954965367 -1.4026527278662688e-05)
(-0.0098059276475441718 0.0021925233918087062 -1.5175225994918385e-05)
(-0.0095862792224868411 0.0023790591168328995 -1.6828566040328984e-05)
(-0.0092513880944906871 0.0025854861693400052 -1.9015827498433084e-05)
(-0.0087854803495986053 0.0028122497511763817 -2.1623965286418576e-05)
(-0.0081723732109071114 0.0030543961041099451 -2.4597471326552974e-05)
(-0.0073971471400703891 0.0032997684836544787 -2.775887761506649e-05)
(-0.0064480794555842758 0.0035274175794607807 -3.101012215049457e-05)
(-0.0053200602533555463 0.0037060050281991943 -3.4271844915364416e-05)
(-0.004018687161812755 0.0037935850215747484 -3.7355832699928938e-05)
(-0.0025654322344175933 0.0037405523285774195 -3.9970656803699094e-05)
(-0.0010073231916092743 0.0034941355484672003 -4.1794420022956011e-05)
(0.00061713777719630679 0.0030025071646436422 -4.1879190815436338e-05)
(0.0021738159586563392 0.0022419739471187445 -3.3269095860677763e-05)
(0.0035997661322980179 0.0012318595181817758 -3.0556537481579131e-05)
(0.0047012361097557289 -3.7276028567434158e-05 -2.356251762400389e-05)
(0.0055538329807126776 -0.0013823151698677701 -2.5564768810363761e-05)
(0.005835255271291237 -0.0028474441991489098 -1.6631730612840146e-05)
(0.0059107858583797345 -0.0040338294043048865 -2.02330205622677e-05)
(0.0053490955506289364 -0.0053396802026070183 -1.6214370105243088e-05)
(0.0047726592181309242 -0.0076219066446364427 -3.1915694137185694e-05)
(0.0037219902354714944 -0.027549806151810519 -2.3854227408947175e-05)
(0.0030569895060160411 -0.13526424766269088 -4.6358845291655467e-06)
(-0.0062014183133469406 0.12724628726917328 -0.00060985404729140729)
(-0.0066310773162852584 0.019096530310341198 -0.00018642082677423335)
(-0.0082938033962370629 0.0022994854811202951 -0.00011760054392604918)
(-0.008136744902817513 0.001007311763247572 -5.634439991638919e-05)
(-0.0086454387491938164 0.001130464831656484 -3.763829424420346e-05)
(-0.0089436253329511477 0.0013070282102458166 -2.380042146293961e-05)
(-0.009230953061884253 0.0014637973899253802 -1.765815880844411e-05)
(-0.0094719374448265278 0.0015974589564223853 -1.4350459318457863e-05)
(-0.009658441907518002 0.0017101703784844252 -1.2718980150159927e-05)
(-0.0097815557777202484 0.0018056026710706488 -1.2120037478290075e-05)
(-0.0098320541678087701 0.0018887016390246052 -1.2258979819736379e-05)
(-0.0097999906912744246 0.0019649778175371249 -1.2962166581836957e-05)
(-0.0096744081282231342 0.0020400761480423601 -1.4218143053540793e-05)
(-0.0094438114909796301 0.0021189964259219658 -1.6006620060375917e-05)
(-0.0090963404990100465 0.0022048365138435159 -1.8129208794056418e-05)
(-0.0086202351617077604 0.0022980159601996199 -2.062030590873408e-05)
(-0.0080049427865674407 0.0023944240087386878 -2.3388846557571863e-05)
(-0.0072424521461813933 0.0024842146845751156 -2.6253856513340946e-05)
(-0.0063292053443782135 0.0025509561932060888 -2.8900265383024879e-05)
(-0.0052681144440838313 0.0025719591980762069 -3.1150053457906482e-05)
(-0.0040714283628902467 0.0025185069100056396 -3.3120254283018878e-05)
(-0.0027639069058040602 0.0023560799639724505 -3.4727688405615134e-05)
(-0.001387606546132393 0.0020499178385667565 -3.5835822651962202e-05)
(1.6365316242257946e-05 0.0015725056101599925 -3.5751869891871681e-05)
(0.001366471802416174 0.00090524048327648824 -2.9485274830993788e-05)
(0.0025898183996273904 8.2630608447089112e-05 -2.6962094481816726e-05)
(0.0035599270547522674 -0.00091970386927663159 -2.4423620830380563e-05)
(0.004343368904780676 -0.0019388443801506337 -2.3619907781541044e-05)
(0.004715073000472361 -0.0030412260300864283 -1.5293420049435045e-05)
(0.0049163243434572476 -0.0039061596964837689 -1.7131190068160598e-05)
(0.0046733482300803687 -0.0048887119649016252 -1.0386798285201619e-05)
(0.0044046243568861831 -0.0070247148438135291 -2.0827269830689062e-05)
(0.0037134060533196697 -0.026781050048775953 -1.300650292021659e-06)
(0.0031017234274777388 -0.13179695776027667 -5.9350061401532814e-06)
(-0.0059630742588263992 0.13425983742401643 -0.00057646851810427987)
(-0.0064501200893731497 0.020766194890798038 -0.00016961436885765477)
(-0.0080506128810804364 0.0028650800253525546 -0.0001099353513067337)
(-0.0079480446339728443 0.0014488523757619836 -5.1269076299580992e-05)
(-0.0084683125451981926 0.0015269455542240779 -3.3959089299874459e-05)
(-0.0087958099652212102 0.0016594972382635337 -2.118390493345393e-05)
(-0.009109246346383373 0.0017666229316116895 -1.5627141515763854e-05)
(-0.0093753806090478703 0.0018442388706865378 -1.2685200643904709e-05)
(-0.0095844252461239447 0.0018936501557866058 -1.1347824738611814e-05)
(-0.0097263193172290423 0.0019178515883816129 -1.0950471872268509e-05)
(-0.0097909532018758145 0.0019206866402581542 -1.1296509988722336e-05)
(-0.0097678796746160507 0.0019071599830037069 -1.2215823495846066e-05)