/*--------------------------------*- C++ -*----------------------------------*\
  =========                 |
  \\      /  F ield         | OpenFOAM: The Open Source CFD Toolbox
   \\    /   O peration     | Website:  https://openfoam.org
    \\  /    A nd           | Version:  11
     \\/     M anipulation  |
\*---------------------------------------------------------------------------*/
FoamFile
{
    format      ascii;
    class       surfaceScalarField;
    location    "1";
    object      phi;
}
// * * * * * * * * * * * * * * * * * * * * * * * * * * * * * * * * * * * * * //

dimensions      [1 0 -1 0 0 0 0];

internalField   nonuniform List<scalar> 
79600
(
-0.000165817
0.000165893
-0.000258107
9.23169e-05
-0.000230038
-2.80596e-05
-0.000181075
-4.89609e-05
-0.000142789
-3.82853e-05
-0.000116
-2.67901e-05
-9.71109e-05
-1.88896e-05
-8.31314e-05
-1.39805e-05
-7.2463e-05
-1.06693e-05
-6.42148e-05
-8.24919e-06
-5.75733e-05
-6.6425e-06
-5.20741e-05
-5.50023e-06
-4.74482e-05
-4.62691e-06
-4.35854e-05
-3.8638e-06
-4.03112e-05
-3.27517e-06
-3.74826e-05
-2.82961e-06
-3.49778e-05
-2.50583e-06
-3.27078e-05
-2.27101e-06
-3.06962e-05
-2.01266e-06
-2.8905e-05
-1.79212e-06
-2.72623e-05
-1.64375e-06
-2.57641e-05
-1.49917e-06
-2.44056e-05
-1.35954e-06
-2.31627e-05
-1.24395e-06
-2.19991e-05
-1.16455e-06
-2.09232e-05
-1.07698e-06
-1.99363e-05
-9.8784e-07
-1.89856e-05
-9.51758e-07
-1.81018e-05
-8.84762e-07
-1.73189e-05
-7.83956e-07
-1.65384e-05
-7.8145e-07
-1.57507e-05
-7.88766e-07
-1.50754e-05
-6.76311e-07
-1.44742e-05
-6.02204e-07
-1.38151e-05
-6.60124e-07
-1.31562e-05
-6.59869e-07
-1.26138e-05
-5.43464e-07
-1.21148e-05
-4.99962e-07
-1.1553e-05
-5.62829e-07
-1.09947e-05
-5.59281e-07
-1.05302e-05
-4.65481e-07
-1.00985e-05
-4.32733e-07
-9.61374e-06
-4.8576e-07
-9.12182e-06
-4.92933e-07
-8.70387e-06
-4.18951e-07
-8.32913e-06
-3.7575e-07
-7.9147e-06
-4.15434e-07
-7.46699e-06
-4.48716e-07
-7.06455e-06
-4.0345e-07
-6.72819e-06
-3.3737e-07
-6.39226e-06
-3.36931e-07
-6.00889e-06
-3.84381e-07
-5.6172e-06
-3.92701e-07
-5.28261e-06
-3.35595e-07
-5.0051e-06
-2.78518e-07
-4.72421e-06
-2.81898e-07
-4.40355e-06
-3.21667e-07
-4.07731e-06
-3.27252e-07
-3.8044e-06
-2.73921e-07
-3.59601e-06
-2.09386e-07
-3.40553e-06
-1.9149e-07
-3.18579e-06
-2.20749e-07
-2.94211e-06
-2.44683e-07
-2.72312e-06
-2.19996e-07
-2.56556e-06
-1.58567e-07
-2.45526e-06
-1.11298e-07
-2.34214e-06
-1.14135e-07
-2.18877e-06
-1.5437e-07
-2.00277e-06
-1.87014e-07
-1.8245e-06
-1.79283e-07
-1.68654e-06
-1.38965e-07
-1.58397e-06
-1.03579e-07
-1.48001e-06
-1.04968e-07
-1.3385e-06
-1.42518e-07
-1.15364e-06
-1.85872e-07
-9.53626e-07
-2.01013e-07
-7.7839e-07
-1.76243e-07
-6.50943e-07
-1.28455e-07
-5.64038e-07
-8.79143e-08
-4.89368e-07
-7.56793e-08
-3.99761e-07
-9.06193e-08
-2.87277e-07
-1.13493e-07
-1.65589e-07
-1.22692e-07
-5.72073e-08
-1.09391e-07
2.40459e-08
-8.22607e-08
8.32047e-08
-6.01664e-08
1.41241e-07
-5.90403e-08
2.21967e-07
-8.17307e-08
3.37512e-07
-1.16552e-07
4.80913e-07
-1.44409e-07
6.29442e-07
-1.49544e-07
7.56148e-07
-1.27717e-07
8.42974e-07
-8.78354e-08
8.88948e-07
-4.69772e-08
9.09938e-07
-2.19938e-08
9.3096e-07
-2.20311e-08
9.75201e-07
-4.52508e-08
1.05479e-06
-8.05979e-08
1.16696e-06
-1.1318e-07
1.29647e-06
-1.30519e-07
1.42251e-06
-1.27051e-07
1.52692e-06
-1.05415e-07
1.60043e-06
-7.45227e-08
1.64507e-06
-4.56482e-08
1.67231e-06
-2.8249e-08
1.69831e-06
-2.70064e-08
1.7382e-06
-4.08949e-08
1.80141e-06
-6.42221e-08
1.8894e-06
-8.89912e-08
1.996e-06
-1.07614e-07
2.11009e-06
-1.15095e-07
2.21922e-06
-1.10143e-07
2.31328e-06
-9.50685e-08
2.38699e-06
-7.47126e-08
2.44084e-06
-5.48567e-08
2.48045e-06
-4.06214e-08
2.51472e-06
-3.52751e-08
2.55338e-06
-3.96677e-08
2.60471e-06
-5.23366e-08
2.67384e-06
-7.01402e-08
2.76202e-06
-8.91803e-08
2.86676e-06
-1.05751e-07
2.98283e-06
-1.17084e-07
3.10359e-06
-1.21761e-07
3.22235e-06
-1.19767e-07
3.33358e-06
-1.12242e-07
3.43365e-06
-1.01076e-07
3.52111e-06
-8.8461e-08
3.59662e-06
-7.65204e-08
3.66268e-06
-6.70638e-08
3.72312e-06
-6.14486e-08
3.78263e-06
-6.0519e-08
3.84621e-06
-6.45801e-08
3.9186e-06
-7.34023e-08
4.00387e-06
-8.62728e-08
4.10499e-06
-1.02126e-07
4.22373e-06
-1.1975e-07
4.36075e-06
-1.38024e-07
4.51584e-06
-1.56101e-07
4.68831e-06
-1.7347e-07
4.87718e-06
-1.8988e-07
5.08136e-06
-2.05186e-07
5.29959e-06
-2.19231e-07
5.53043e-06
-2.31847e-07
5.77238e-06
-2.42965e-07
6.02413e-06
-2.52751e-07
6.28475e-06
-2.61624e-07
6.55385e-06
-2.70111e-07
6.83145e-06
-2.78608e-07
7.11768e-06
-2.87232e-07
7.41256e-06
-2.95888e-07
7.71606e-06
-3.04513e-07
8.02836e-06
-3.13308e-07
8.35008e-06
-3.22722e-07
8.68225e-06
-3.33185e-07
9.02605e-06
-3.44805e-07
9.38239e-06
-3.57341e-07
9.7519e-06
-3.70512e-07
1.01353e-05
-3.84387e-07
1.05337e-05
-3.99464e-07
1.0949e-05
-4.16287e-07
1.1383e-05
-4.34984e-07
1.18372e-05
-4.55224e-07
1.23129e-05
-4.7672e-07
1.28117e-05
-4.99786e-07
1.3336e-05
-5.25265e-07
1.38888e-05
-5.53825e-07
1.44732e-05
-5.85434e-07
1.50919e-05
-6.19727e-07
1.57478e-05
-6.56943e-07
1.64451e-05
-6.9826e-07
1.71891e-05
-7.44979e-07
1.79856e-05
-7.9755e-07
1.88405e-05
-8.55871e-07
1.97602e-05
-9.20698e-07
2.07534e-05
-9.94237e-07
2.18313e-05
-1.0789e-06
2.30061e-05
-1.17586e-06
2.42911e-05
-1.28599e-06
2.57028e-05
-1.41267e-06
2.72645e-05
-1.56273e-06
2.9006e-05
-1.74255e-06
3.09592e-05
-1.9542e-06
3.31594e-05
-2.20118e-06
3.56586e-05
-2.50022e-06
3.85352e-05
-2.8776e-06
4.18866e-05
-3.35239e-06
4.58342e-05
-3.94868e-06
5.05641e-05
-4.73093e-06
5.63571e-05
-5.794e-06
6.36e-05
-7.24389e-06
7.28686e-05
-9.26963e-06
8.5102e-05
-1.22344e-05
0.000101816
-1.67153e-05
0.000125314
-2.34994e-05
0.000158251
-3.29378e-05
0.00019938
-4.11317e-05
0.000221925
-2.25488e-05
0.000137917
8.39975e-05
0.000137889
-0.000182465
0.000348433
-0.000315237
0.000225116
-0.000314735
-2.85529e-05
-0.000272796
-9.08966e-05
-0.000229571
-8.15098e-05
-0.000194161
-6.22005e-05
-0.000166604
-4.64476e-05
-0.000145262
-3.53224e-05
-0.000128415
-2.75171e-05
-0.000114777
-2.18883e-05
-0.000103704
-1.77165e-05
-9.45219e-05
-1.4683e-05
-8.67858e-05
-1.23639e-05
-8.01071e-05
-1.05433e-05
-7.4382e-05
-9.00108e-06
-6.93819e-05
-7.83046e-06
-6.49656e-05
-6.92301e-06
-6.10641e-05
-6.17328e-06
-5.75551e-05
-5.52246e-06
-5.43952e-05
-4.95284e-06
-5.15455e-05
-4.49429e-06
-4.89373e-05
-4.10814e-06
-4.65526e-05
-3.74502e-06
-4.43866e-05
-3.41078e-06
-4.23862e-05
-3.16575e-06
-4.04922e-05
-2.97172e-06
-3.87538e-05
-2.72704e-06
-3.71978e-05
-2.50857e-06
-3.56923e-05
-2.39109e-06
-3.42148e-05
-2.26225e-06
-3.29118e-05
-2.08524e-06
-3.17423e-05
-1.95907e-06
-3.05352e-05
-1.88423e-06
-2.93516e-05
-1.78661e-06
-2.83387e-05
-1.67379e-06
-2.74096e-05
-1.58982e-06
-2.64241e-05
-1.5297e-06
-2.54569e-05
-1.46798e-06
-2.46234e-05
-1.39716e-06
-2.38573e-05
-1.32618e-06
-2.30512e-05
-1.27237e-06
-2.22449e-05
-1.23984e-06
-2.15274e-05
-1.20413e-06
-2.08755e-05
-1.1456e-06
-2.02093e-05
-1.08592e-06
-1.95286e-05
-1.0573e-06
-1.88962e-05
-1.0486e-06
-1.8326e-05
-1.01971e-06
-1.77668e-05
-9.63446e-07
-1.71885e-05
-9.1655e-07
-1.66224e-05
-9.03753e-07
-1.61061e-05
-9.01551e-07
-1.56264e-05
-8.73188e-07
-1.51425e-05
-8.20277e-07
-1.46433e-05
-7.7847e-07
-1.41583e-05
-7.67782e-07
-1.37138e-05
-7.66927e-07
-1.32994e-05
-7.42431e-07
-1.28831e-05
-6.91056e-07
-1.24508e-05
-6.4251e-07
-1.20201e-05
-6.22924e-07
-1.16166e-05
-6.25071e-07
-1.12438e-05
-6.18277e-07
-1.08813e-05
-5.83347e-07
-1.05078e-05
-5.32809e-07
-1.01231e-05
-4.96866e-07
-9.74533e-06
-4.92663e-07
-9.39185e-06
-5.08653e-07
-9.06231e-06
-5.17351e-07
-8.74089e-06
-5.01499e-07
-8.41211e-06
-4.68548e-07
-8.07446e-06
-4.42033e-07
-7.74027e-06
-4.39963e-07
-7.42378e-06
-4.59807e-07
-7.12896e-06
-4.81502e-07
-6.8468e-06
-4.83975e-07
-6.56305e-06
-4.60803e-07
-6.26887e-06
-4.23431e-07
-5.96628e-06
-3.91305e-07
-5.66503e-06
-3.77727e-07
-5.3746e-06
-3.81853e-07
-5.0975e-06
-3.91392e-07
-4.82838e-06
-3.92609e-07
-4.55865e-06
-3.79926e-07
-4.28277e-06
-3.58949e-07
-4.00191e-06
-3.4183e-07
-3.72293e-06
-3.38831e-07
-3.45374e-06
-3.51726e-07
-3.19834e-06
-3.72757e-07
-2.95432e-06
-3.8921e-07
-2.7142e-06
-3.90468e-07
-2.46921e-06
-3.7351e-07
-2.21368e-06
-3.4417e-07
-1.94751e-06
-3.13961e-07
-1.67583e-06
-2.94483e-07
-1.40636e-06
-2.92304e-07
-1.14587e-06
-3.06535e-07
-8.97434e-07
-3.29839e-07
-6.59449e-07
-3.5197e-07
-4.26697e-07
-3.64074e-07
-1.9264e-07
-3.61917e-07
4.81025e-08
-3.4696e-07
2.97966e-07
-3.2519e-07
5.56002e-07
-3.04485e-07
8.18636e-07
-2.91682e-07
1.08121e-06
-2.90388e-07
1.3397e-06
-3.00184e-07
1.59191e-06
-3.17234e-07
1.838e-06
-3.35885e-07
2.08019e-06
-3.50603e-07
2.32188e-06
-3.5759e-07
2.56662e-06
-3.5568e-07
2.81711e-06
-3.46362e-07
3.07466e-06
-3.33068e-07
3.33905e-06
-3.2005e-07
3.60881e-06
-3.11187e-07
3.88181e-06
-3.0907e-07
4.15585e-06
-3.14511e-07
4.42928e-06
-3.26568e-07
4.70131e-06
-3.42964e-07
4.97208e-06
-3.60754e-07
5.24258e-06
-3.77053e-07
5.51431e-06
-3.89619e-07
5.78897e-06
-3.97222e-07
6.06813e-06
-3.99729e-07
6.35305e-06
-3.97956e-07
6.64454e-06
-3.93371e-07
6.94303e-06
-3.8775e-07
7.24857e-06
-3.82868e-07
7.56098e-06
-3.80276e-07
7.87991e-06
-3.8117e-07
8.20492e-06
-3.8633e-07
8.53563e-06
-3.9609e-07
8.87178e-06
-4.10347e-07
9.21331e-06
-4.28597e-07
9.56041e-06
-4.50026e-07
9.91351e-06
-4.73659e-07
1.02732e-05
-4.98549e-07
1.06403e-05
-5.23928e-07
1.10153e-05
-5.49296e-07
1.1399e-05
-5.74384e-07
1.17921e-05
-5.99059e-07
1.21952e-05
-6.23207e-07
1.26093e-05
-6.46714e-07
1.30351e-05
-6.69533e-07
1.34733e-05
-6.91794e-07
1.39248e-05
-7.1386e-07
1.43901e-05
-7.36226e-07
1.487e-05
-7.59334e-07
1.53654e-05
-7.8341e-07
1.58772e-05
-8.08482e-07
1.64064e-05
-8.34576e-07
1.69543e-05
-8.61931e-07
1.75218e-05
-8.91038e-07
1.81102e-05
-9.22426e-07
1.8721e-05
-9.5638e-07
1.93557e-05
-9.92857e-07
2.00161e-05
-1.03175e-06
2.07042e-05
-1.07328e-06
2.14221e-05
-1.11809e-06
2.21719e-05
-1.16696e-06
2.29564e-05
-1.22027e-06
2.37784e-05
-1.278e-06
2.46411e-05
-1.3402e-06
2.5548e-05
-1.40758e-06
2.65034e-05
-1.48138e-06
2.75115e-05
-1.56274e-06
2.85774e-05
-1.65217e-06
2.97068e-05
-1.74996e-06
3.09063e-05
-1.85723e-06
3.21834e-05
-1.97612e-06
3.35465e-05
-2.10894e-06
3.50054e-05
-2.25723e-06
3.65711e-05
-2.4224e-06
3.82569e-05
-2.60727e-06
4.00783e-05
-2.8164e-06
4.20534e-05
-3.05484e-06
4.42041e-05
-3.32729e-06
4.65566e-05
-3.63928e-06
4.91419e-05
-3.99884e-06
5.19957e-05
-4.41731e-06
5.51616e-05
-4.9092e-06
5.86975e-05
-5.49094e-06
6.26777e-05
-6.18214e-06
6.7192e-05
-7.0154e-06
7.23581e-05
-8.04444e-06
7.83381e-05
-9.33325e-06
8.53431e-05
-1.09544e-05
9.36419e-05
-1.30305e-05
0.00010361
-1.57632e-05
0.000115793
-1.94272e-05
0.000130961
-2.44389e-05
0.000150197
-3.14712e-05
0.000174935
-4.14541e-05
0.000206682
-5.52473e-05
0.000245436
-7.16924e-05
0.000283444
-7.91418e-05
0.000283963
-2.30727e-05
0.000163075
0.000204875
0.000300937
-0.000121449
0.000469959
-0.000226581
0.000330275
-0.000246629
-8.49598e-06
-0.000231185
-0.000106338
-0.000206501
-0.000106193
-0.000182045
-8.6657e-05
-0.000160676
-6.78168e-05
-0.000142858
-5.31412e-05
-0.000128079
-4.22968e-05
-0.000115741
-3.42263e-05
-0.000105364
-2.8095e-05
-9.65121e-05
-2.35353e-05
-8.89912e-05
-1.98854e-05
-8.24948e-05
-1.70403e-05
-7.67879e-05
-1.47086e-05
-7.17643e-05
-1.28547e-05
-6.73063e-05
-1.13817e-05
-6.33711e-05
-1.01091e-05
-5.9833e-05
-9.06127e-06
-5.65951e-05
-8.19141e-06
-5.36778e-05
-7.41224e-06
-5.10483e-05
-6.73828e-06
-4.86224e-05
-6.17163e-06
-4.63451e-05
-5.6888e-06
-4.42707e-05
-5.24074e-06
-4.2415e-05
-4.82809e-06
-4.06318e-05
-4.5109e-06
-3.89067e-05
-4.23437e-06
-3.73799e-05
-3.91857e-06
-3.59948e-05
-3.64806e-06
-3.46002e-05
-3.48051e-06
-3.3258e-05
-3.30191e-06
-3.20775e-05
-3.06537e-06
-3.09833e-05
-2.88146e-06
-2.98763e-05
-2.78153e-06
-2.88031e-05
-2.6636e-06
-2.78358e-05
-2.49772e-06
-2.69411e-05
-2.36335e-06
-2.6053e-05
-2.28589e-06
-2.51754e-05
-2.20444e-06
-2.43542e-05
-2.09427e-06
-2.35973e-05
-1.99735e-06
-2.28683e-05
-1.93381e-06
-2.21425e-05
-1.87213e-06
-2.14363e-05
-1.79272e-06
-2.07761e-05
-1.71824e-06
-2.01572e-05
-1.66812e-06
-1.95515e-05
-1.6261e-06
-1.89458e-05
-1.56978e-06
-1.83576e-05
-1.50546e-06
-1.78074e-05
-1.45461e-06
-1.72893e-05
-1.42029e-06
-1.67782e-05
-1.38498e-06
-1.62617e-05
-1.33747e-06
-1.57541e-05
-1.28671e-06
-1.52762e-05
-1.24635e-06
-1.48282e-05
-1.21558e-06
-1.43893e-05
-1.18195e-06
-1.39419e-05
-1.13915e-06
-1.34901e-05
-1.09493e-06
-1.30534e-05
-1.06037e-06
-1.26433e-05
-1.03579e-06
-1.22516e-05
-1.01063e-06
-1.18593e-05
-9.76354e-07
-1.14562e-05
-9.36602e-07
-1.10501e-05
-9.0358e-07
-1.06581e-05
-8.85385e-07
-1.02895e-05
-8.77904e-07
-9.93847e-06
-8.69023e-07
-9.59048e-06
-8.50156e-07
-9.2359e-06
-8.23795e-07
-8.87798e-06
-8.00619e-07
-8.52901e-06
-7.89596e-07
-8.19931e-06
-7.90163e-07
-7.88875e-06
-7.92726e-07
-7.58708e-06
-7.86317e-07
-7.28182e-06
-7.66734e-07
-6.96688e-06
-7.39038e-07
-6.64563e-06
-7.13228e-07
-6.32701e-06
-6.97007e-07
-6.01849e-06
-6.91042e-07
-5.721e-06
-6.89553e-07
-5.42914e-06
-6.85131e-07
-5.13575e-06
-6.73992e-07
-4.83715e-06
-6.58209e-07
-4.53578e-06
-6.43864e-07
-4.23851e-06
-6.36769e-07
-3.95225e-06
-6.38654e-07
-3.67962e-06
-6.46062e-07
-3.41716e-06
-6.52337e-07
-3.15699e-06
-6.51305e-07
-2.89066e-06
-6.40502e-07
-2.61318e-06
-6.22318e-07
-2.32513e-06
-6.02681e-07
-2.03211e-06
-5.8817e-07
-1.74201e-06
-5.83076e-07
-1.46149e-06
-5.87717e-07
-1.19337e-06
-5.98626e-07
-9.35745e-07
-6.10263e-07
-6.83092e-07
-6.17391e-07
-4.28635e-07
-6.17046e-07
-1.66857e-07
-6.09406e-07
1.04689e-07
-5.97402e-07
3.84909e-07
-5.85371e-07
6.6996e-07
-5.77394e-07
9.54847e-07
-5.75942e-07
1.23523e-06
-5.8123e-07
1.50873e-06
-5.91404e-07
1.77553e-06
-6.03354e-07
2.03806e-06
-6.13804e-07
2.30013e-06
-6.20317e-07
2.5657e-06
-6.21912e-07
2.83786e-06
-6.19193e-07
3.11814e-06
-6.14017e-07
3.4063e-06
-6.08875e-07
3.70063e-06
-6.0618e-07
3.99857e-06
-6.07672e-07
4.29745e-06
-6.14059e-07
4.59517e-06
-6.24957e-07
4.89063e-06
-6.39092e-07
5.18389e-06
-6.54683e-07
5.47605e-06
-6.69878e-07
5.76894e-06
-6.83168e-07
6.06469e-06
-6.93643e-07
6.36541e-06
-7.01109e-07
6.67281e-06
-7.06022e-07
6.9881e-06
-7.09321e-07
7.31188e-06
-7.12201e-07
7.64424e-06
-7.15896e-07
7.98482e-06
-7.21517e-07
8.33293e-06
-7.29948e-07
8.68774e-06
-7.41803e-07
9.0484e-06
-7.57406e-07
9.41418e-06
-7.76793e-07
9.78464e-06
-7.9972e-07
1.01596e-05
-8.25703e-07
1.05394e-05
-8.54096e-07
1.09244e-05
-8.8422e-07
1.13153e-05
-9.15488e-07
1.17129e-05
-9.47503e-07
1.21179e-05
-9.80065e-07
1.25313e-05
-1.0131e-06
1.2954e-05
-1.04657e-06
1.3387e-05
-1.08042e-06
1.38314e-05
-1.11459e-06
1.42881e-05
-1.14919e-06
1.47581e-05
-1.18451e-06
1.52422e-05
-1.221e-06
1.57413e-05
-1.25912e-06
1.62565e-05
-1.29919e-06
1.67886e-05
-1.34131e-06
1.7339e-05
-1.38557e-06
1.79086e-05
-1.43226e-06
1.84988e-05
-1.48191e-06
1.91109e-05
-1.53516e-06
1.97463e-05
-1.59242e-06
2.04066e-05
-1.65385e-06
2.10937e-05
-1.71951e-06
2.18096e-05
-1.7898e-06
2.25564e-05
-1.86555e-06
2.33364e-05
-1.94771e-06
2.41524e-05
-2.03692e-06
2.50072e-05
-2.13347e-06
2.59042e-05
-2.23782e-06
2.6847e-05
-2.35105e-06
2.78398e-05
-2.47483e-06
2.8887e-05
-2.61068e-06
2.99938e-05
-2.75964e-06
3.1166e-05
-2.92276e-06
3.24102e-05
-3.10209e-06
3.37341e-05
-3.3007e-06
3.51462e-05
-3.52171e-06
3.66561e-05
-3.76781e-06
3.82752e-05
-4.04214e-06
4.00169e-05
-4.3496e-06
4.18964e-05
-4.69663e-06
4.3931e-05
-5.09009e-06
4.6141e-05
-5.53796e-06
4.85525e-05
-6.05147e-06
5.1198e-05
-6.64495e-06
5.41139e-05
-7.3339e-06
5.73414e-05
-8.13742e-06
6.09332e-05
-9.08335e-06
6.49579e-05
-1.02075e-05
6.94964e-05
-1.15546e-05
7.4645e-05
-1.31937e-05
8.05362e-05
-1.52252e-05
8.73517e-05
-1.77706e-05
9.53166e-05
-2.09961e-05
0.000104711
-2.51587e-05
0.0001159
-3.06161e-05
0.000129333
-3.78727e-05
0.000145514
-4.7653e-05
0.000164829
-6.07702e-05
0.000187046
-7.74651e-05
0.000209861
-9.45081e-05
0.000224844
-9.41268e-05
0.000207071
-5.30371e-06
0.000110788
0.000301147
0.000411698
-7.18127e-05
0.000541847
-0.000148608
0.000407097
-0.000178029
2.09347e-05
-0.000180384
-0.000103979
-0.000170959
-0.000115617
-0.00015741
-0.000100206
-0.00014354
-8.16875e-05
-0.000130668
-6.60133e-05
-0.000119203
-5.37625e-05
-0.000109241
-4.41891e-05
-0.000100427
-3.69093e-05
-9.28482e-05
-3.11147e-05
-8.61015e-05
-2.66327e-05
-8.01686e-05
-2.29738e-05
-7.48904e-05
-1.99874e-05
-7.02111e-05
-1.75346e-05
-6.60443e-05
-1.55492e-05
-6.22711e-05
-1.38829e-05
-5.88883e-05
-1.24447e-05
-5.58423e-05
-1.1238e-05
-5.3034e-05
-1.02211e-05
-5.04359e-05
-9.33701e-06
-4.80785e-05
-8.52963e-06
-4.59476e-05
-7.82029e-06
-4.39283e-05
-7.26064e-06
-4.19976e-05
-6.75937e-06
-4.02726e-05
-6.23652e-06
-3.87193e-05
-5.78826e-06
-3.7176e-05
-5.46242e-06
-3.56775e-05
-5.14721e-06
-3.43604e-05
-4.79815e-06
-3.3162e-05
-4.50095e-06
-3.19466e-05
-4.28133e-06
-3.07596e-05
-4.06908e-06
-2.97025e-05
-3.83929e-06
-2.87306e-05
-3.63603e-06
-2.77545e-05
-3.47448e-06
-2.67965e-05
-3.32187e-06
-2.59199e-05
-3.16308e-06
-2.51066e-05
-3.0184e-06
-2.43018e-05
-2.89969e-06
-2.35086e-05
-2.79112e-06
-2.27657e-05
-2.67732e-06
-2.20734e-05
-2.56505e-06
-2.13978e-05
-2.46892e-06
-2.07275e-05
-2.38908e-06
-2.00837e-05
-2.3125e-06
-1.94796e-05
-2.23085e-06
-1.89007e-05
-2.14927e-06
-1.83296e-05
-2.07716e-06
-1.7769e-05
-2.01581e-06
-1.72318e-05
-1.95807e-06
-1.67194e-05
-1.89793e-06
-1.62207e-05
-1.83678e-06
-1.57283e-05
-1.77975e-06
-1.52468e-05
-1.72839e-06
-1.47838e-05
-1.67924e-06
-1.43374e-05
-1.62894e-06
-1.38985e-05
-1.57869e-06
-1.34615e-05
-1.53248e-06
-1.30307e-05
-1.49175e-06
-1.26138e-05
-1.45329e-06
-1.22123e-05
-1.41277e-06
-1.18193e-05
-1.36991e-06
-1.1427e-05
-1.32946e-06
-1.10345e-05
-1.29671e-06
-1.06481e-05
-1.27235e-06
-1.02751e-05
-1.25154e-06
-9.9165e-06
-1.22823e-06
-9.56683e-06
-1.20042e-06
-9.21944e-06
-1.17179e-06
-8.87233e-06
-1.14833e-06
-8.52937e-06
-1.13316e-06
-8.19632e-06
-1.12382e-06
-7.87563e-06
-1.11401e-06
-7.56432e-06
-1.09822e-06
-7.25617e-06
-1.07548e-06
-6.94607e-06
-1.04973e-06
-6.63313e-06
-1.02677e-06
-6.3204e-06
-1.01033e-06
-6.01209e-06
-9.99947e-07
-5.71043e-06
-9.91816e-07
-5.41446e-06
-9.81696e-07
-5.12127e-06
-9.67787e-07
-4.82836e-06
-9.51717e-07
-4.53554e-06
-9.37281e-07
-4.245e-06
-9.27909e-07
-3.95973e-06
-9.24513e-07
-3.68147e-06
-9.24925e-07
-3.40932e-06
-9.25086e-07
-3.14002e-06
-9.2121e-07
-2.86944e-06
-9.11681e-07
-2.59458e-06
-8.97771e-07
-2.31493e-06
-8.82924e-07
-2.0326e-06
-8.711e-07
-1.75124e-06
-8.65033e-07
-1.47438e-06
-8.6517e-07
-1.20393e-06
-8.69678e-07
-9.39423e-07
-8.75368e-07
-6.7835e-07
-8.79059e-07
-4.17211e-07
-8.78783e-07
-1.52832e-07
-8.74381e-07
1.16545e-07
-8.67375e-07
3.90819e-07
-8.60244e-07
6.6829e-07
-8.55463e-07
9.46417e-07
-8.54666e-07
1.22279e-06
-8.58197e-07
1.49592e-06
-8.65137e-07
1.76571e-06
-8.73732e-07
2.03333e-06
-8.82022e-07
2.30087e-06
-8.88454e-07
2.57066e-06
-8.92295e-07
2.84463e-06
-8.93766e-07
3.12391e-06
-8.93893e-07
3.4086e-06
-8.94159e-07
3.6979e-06
-8.96083e-07
3.99046e-06
-9.00826e-07
4.28475e-06
-9.08944e-07
4.57951e-06
-9.20308e-07
4.87401e-06
-9.34194e-07
5.16824e-06
-9.4951e-07
5.46283e-06
-9.65067e-07
5.75892e-06
-9.79858e-07
6.05794e-06
-9.93252e-07
6.36132e-06
-1.00508e-06
6.67034e-06
-1.01564e-06
6.98595e-06
-1.02553e-06
7.30874e-06
-1.03559e-06
7.63891e-06
-1.04666e-06
7.97633e-06
-1.05953e-06
8.32065e-06
-1.07486e-06
8.6714e-06
-1.09314e-06
9.02807e-06
-1.11468e-06
9.39026e-06
-1.13959e-06
9.75773e-06
-1.16779e-06
1.01304e-05
-1.19899e-06
1.05085e-05
-1.23277e-06
1.08923e-05
-1.26864e-06
1.12824e-05
-1.30617e-06
1.16794e-05
-1.3451e-06
1.20841e-05
-1.38534e-06
1.24973e-05
-1.42687e-06
1.29198e-05
-1.46969e-06
1.33525e-05
-1.51376e-06
1.37964e-05
-1.55904e-06
1.42522e-05
-1.60564e-06
1.4721e-05
-1.65387e-06
1.52036e-05
-1.70421e-06
1.5701e-05
-1.75713e-06
1.62142e-05
-1.81293e-06
1.6744e-05
-1.87176e-06
1.72916e-05
-1.93378e-06
1.78582e-05
-1.99939e-06
1.84449e-05
-2.06926e-06
1.90532e-05
-2.14409e-06
1.96846e-05
-2.22436e-06
2.03404e-05
-2.3103e-06
2.10225e-05
-2.40216e-06
2.17327e-05
-2.50061e-06
2.24733e-05
-2.60675e-06
2.32467e-05
-2.72167e-06
2.40553e-05
-2.84611e-06
2.49018e-05
-2.98058e-06
2.57894e-05
-3.12598e-06
2.67217e-05
-3.28396e-06
2.77028e-05
-3.45655e-06
2.8737e-05
-3.64551e-06
2.9829e-05
-3.85223e-06
3.09842e-05
-4.07855e-06
3.22091e-05
-4.32757e-06
3.3511e-05
-4.60316e-06
3.48977e-05
-4.90904e-06
3.63781e-05
-5.2488e-06
3.79627e-05
-5.62735e-06
3.96643e-05
-6.05178e-06
4.14973e-05
-6.53029e-06
4.34777e-05
-7.07106e-06
4.5623e-05
-7.68388e-06
4.79545e-05
-8.38356e-06
5.04988e-05
-9.18981e-06
5.32882e-05
-1.01239e-05
5.63607e-05
-1.12105e-05
5.97625e-05
-1.24858e-05
6.35522e-05
-1.39978e-05
6.77972e-05
-1.58001e-05
7.25678e-05
-1.7965e-05
7.79477e-05
-2.06056e-05
8.40462e-05
-2.38697e-05
9.09947e-05
-2.79451e-05
9.89426e-05
-3.31072e-05
0.000108055
-3.97294e-05
0.000118467
-4.82853e-05
0.000130173
-5.93597e-05
0.000142813
-7.34101e-05
0.000155184
-8.98369e-05
0.000164276
-0.000103602
0.000163227
-9.30798e-05
0.000137277
2.06421e-05
6.69241e-05
0.00037149
0.000478594
-4.32284e-05
0.000585151
-9.81349e-05
0.000462031
-0.000127707
5.05164e-05
-0.000138434
-9.325e-05
-0.000138719
-0.000115331
-0.000133452
-0.000105473
-0.000125749
-8.93908e-05
-0.00011741
-7.43529e-05
-0.000109207
-6.19662e-05
-0.000101488
-5.19091e-05
-9.44328e-05
-4.39647e-05
-8.80406e-05
-3.75074e-05
-8.22924e-05
-3.23815e-05
-7.71323e-05
-2.81345e-05
-7.2434e-05
-2.46863e-05
-6.81451e-05
-2.18241e-05
-6.43144e-05
-1.93805e-05
-6.08655e-05
-1.73324e-05
-5.76816e-05
-1.56291e-05
-5.47408e-05
-1.41794e-05
-5.20877e-05
-1.28748e-05
-4.96987e-05
-1.17266e-05
-4.7431e-05
-1.07979e-05
-4.52681e-05
-9.98372e-06
-4.33409e-05
-9.18847e-06
-4.16032e-05
-8.49766e-06
-3.98953e-05
-7.94497e-06
-3.82535e-05
-7.43057e-06
-3.67895e-05
-6.92701e-06
-3.54455e-05
-6.49177e-06
-3.41206e-05
-6.12361e-06
-3.28452e-05
-5.77696e-06
-3.16806e-05
-5.44649e-06
-3.05974e-05
-5.1528e-06
-2.95411e-05
-4.89614e-06
-2.85189e-05
-4.65887e-06
-2.75639e-05
-4.43002e-06
-2.66709e-05
-4.21543e-06
-2.58077e-05
-4.0268e-06
-2.49644e-05
-3.86226e-06
-2.41593e-05
-3.70539e-06
-2.34038e-05
-3.54714e-06
-2.26841e-05
-3.39758e-06
-2.19807e-05
-3.26902e-06
-2.12932e-05
-3.15705e-06
-2.06354e-05
-3.0474e-06
-2.0013e-05
-2.93543e-06
-1.94152e-05
-2.82927e-06
-1.88293e-05
-2.73575e-06
-1.82556e-05
-2.65135e-06
-1.77033e-05
-2.5687e-06
-1.71755e-05
-2.48647e-06
-1.6665e-05
-2.40898e-06
-1.61637e-05
-2.33862e-06
-1.56718e-05
-2.27223e-06
-1.51953e-05
-2.20549e-06
-1.47366e-05
-2.13848e-06
-1.42906e-05
-2.07543e-06
-1.38504e-05
-2.01949e-06
-1.34145e-05
-1.96895e-06
-1.29879e-05
-1.91895e-06
-1.25754e-05
-1.86634e-06
-1.21759e-05
-1.8128e-06
-1.17832e-05
-1.76321e-06
-1.1392e-05
-1.72127e-06
-1.10028e-05
-1.68646e-06
-1.06211e-05
-1.65461e-06
-1.02518e-05
-1.62141e-06
-9.89488e-06
-1.58572e-06
-9.54572e-06
-1.55015e-06
-9.19929e-06
-1.51878e-06
-8.85422e-06
-1.49397e-06
-8.51338e-06
-1.47456e-06
-8.18104e-06
-1.45673e-06
-7.8591e-06
-1.43652e-06
-7.54554e-06
-1.41235e-06
-7.23586e-06
-1.38573e-06
-6.92612e-06
-1.36004e-06
-6.6152e-06
-1.33825e-06
-6.30495e-06
-1.32115e-06
-5.99836e-06
-1.3071e-06
-5.69739e-06
-1.29335e-06
-5.40184e-06
-1.27781e-06
-5.10986e-06
-1.26034e-06
-4.81943e-06
-1.24272e-06
-4.52976e-06
-1.22752e-06
-4.24168e-06
-1.21656e-06
-3.95688e-06
-1.20988e-06
-3.67668e-06
-1.20568e-06
-3.40103e-06
-1.2013e-06
-3.12835e-06
-1.19446e-06
-2.85627e-06
-1.18434e-06
-2.58273e-06
-1.17188e-06
-2.30694e-06
-1.15927e-06
-2.02966e-06
-1.14894e-06
-1.75275e-06
-1.14251e-06
-1.47822e-06
-1.14026e-06
-1.20739e-06
-1.14108e-06
-9.40255e-07
-1.14307e-06
-6.75599e-07
-1.14428e-06
-4.11452e-07
-1.14349e-06
-1.45863e-07
-1.14053e-06
1.22435e-07
-1.13624e-06
3.93676e-07
-1.13205e-06
6.67116e-07
-1.12947e-06
9.41425e-07
-1.12954e-06
1.21523e-06
-1.13257e-06
1.48761e-06
-1.13808e-06
1.75841e-06
-1.14509e-06
2.02826e-06
-1.15244e-06
2.29837e-06
-1.15913e-06
2.57017e-06
-1.16466e-06
2.84493e-06
-1.1691e-06
3.12347e-06
-1.173e-06
3.40601e-06
-1.17726e-06
3.69221e-06
-1.18285e-06
3.98135e-06
-1.19053e-06
4.27255e-06
-1.20071e-06
4.56507e-06
-1.21339e-06
4.85846e-06
-1.22815e-06
5.15271e-06
-1.24433e-06
5.44824e-06
-1.26116e-06
5.7458e-06
-1.27799e-06
6.04638e-06
-1.2944e-06
6.35102e-06
-1.31029e-06
6.66067e-06
-1.32586e-06
6.9761e-06
-1.34153e-06
7.29781e-06
-1.35787e-06
7.62606e-06
-1.37547e-06
7.96085e-06
-1.3949e-06
8.30205e-06
-1.41663e-06
8.64942e-06
-1.44107e-06
9.0027e-06
-1.46852e-06
9.36167e-06
-1.49913e-06
9.72625e-06
-1.53293e-06
1.00964e-05
-1.56974e-06
1.04724e-05
-1.60929e-06
1.08544e-05
-1.65124e-06
1.1243e-05
-1.69531e-06
1.16387e-05
-1.74137e-06
1.20422e-05
-1.78942e-06
1.24543e-05
-1.83949e-06
1.28756e-05
-1.89162e-06
1.33071e-05
-1.94576e-06
1.37494e-05
-2.00193e-06
1.42035e-05
-2.06025e-06
1.46701e-05
-2.12112e-06
1.51504e-05
-2.18502e-06
1.56451e-05
-2.25242e-06
1.61552e-05
-2.3236e-06
1.66816e-05
-2.39872e-06
1.72253e-05
-2.47807e-06
1.77875e-05
-2.56218e-06
1.83696e-05
-2.65184e-06
1.89727e-05
-2.74781e-06
1.95983e-05
-2.85055e-06
2.02479e-05
-2.96038e-06
2.09229e-05
-3.07778e-06
2.16255e-05
-3.20372e-06
2.23577e-05
-3.33951e-06
2.31217e-05
-3.48632e-06
2.392e-05
-3.64491e-06
2.47549e-05
-3.81608e-06
2.56296e-05
-4.00124e-06
2.65476e-05
-4.20253e-06
2.75127e-05
-4.42223e-06
2.85288e-05
-4.66218e-06
2.96002e-05
-4.92422e-06
3.07322e-05
-5.21106e-06
3.19308e-05
-5.52672e-06
3.32026e-05
-5.87555e-06
3.45546e-05
-6.26165e-06
3.59948e-05
-6.68958e-06
3.75328e-05
-7.16589e-06
3.91797e-05
-7.6992e-06
4.09479e-05
-8.2991e-06
4.2852e-05
-8.97576e-06
4.4909e-05
-9.74141e-06
4.71373e-05
-1.06124e-05
4.95568e-05
-1.16099e-05
5.21916e-05
-1.27593e-05
5.50705e-05
-1.40899e-05
5.82257e-05
-1.56415e-05
6.16971e-05
-1.74698e-05
6.55372e-05
-1.96408e-05
6.98017e-05
-2.223e-05
7.45405e-05
-2.5345e-05
7.98053e-05
-2.91351e-05
8.5641e-05
-3.37814e-05
9.20617e-05
-3.95285e-05
9.90454e-05
-4.67136e-05
0.000106485
-5.57255e-05
0.000114071
-6.69465e-05
0.000121129
-8.04688e-05
0.000126241
-9.49497e-05
0.000126711
-0.000104073
0.000117766
-8.4136e-05
9.1474e-05
4.69299e-05
4.09012e-05
0.000422053
0.000519468
-2.81206e-05
0.000613348
-6.75207e-05
0.000501458
-9.34584e-05
7.64636e-05
-0.000106889
-7.98163e-05
-0.000111962
-0.000110257
-0.000111905
-0.00010553
-0.000108796
-9.24997e-05
-0.000104044
-7.91058e-05
-9.8796e-05
-6.72146e-05
-9.31983e-05
-5.75074e-05
-8.78683e-05
-4.92952e-05
-8.27263e-05
-4.26501e-05
-7.79675e-05
-3.71408e-05
-7.35218e-05
-3.25808e-05
-6.94473e-05
-2.87613e-05
-6.57325e-05
-2.55395e-05
-6.22807e-05
-2.28328e-05
-5.90598e-05
-2.05538e-05
-5.61356e-05
-1.85539e-05
-5.35031e-05
-1.68124e-05
-5.10133e-05
-1.53652e-05
-4.86459e-05
-1.40946e-05
-4.65186e-05
-1.29257e-05
-4.45845e-05
-1.19184e-05
-4.27128e-05
-1.10606e-05
-4.09347e-05
-1.02763e-05
-3.93245e-05
-9.55578e-06
-3.78319e-05
-8.92366e-06
-3.63876e-05
-8.37191e-06
-3.5012e-05
-7.86793e-06
-3.37421e-05
-7.394e-06
-3.25553e-05
-6.96439e-06
-3.14111e-05
-6.59125e-06
-3.03098e-05
-6.25465e-06
-2.92745e-05
-5.93193e-06
-2.83054e-05
-5.62857e-06
-2.73781e-05
-5.35786e-06
-2.64779e-05
-5.11617e-06
-2.56133e-05
-4.892e-06
-2.47958e-05
-4.68029e-06
-2.40209e-05
-4.4808e-06
-2.3274e-05
-4.2946e-06
-2.25477e-05
-4.12442e-06
-2.18468e-05
-3.97056e-06
-2.11772e-05
-3.82715e-06
-2.05371e-05
-3.68807e-06
-1.99186e-05
-3.55447e-06
-1.93168e-05
-3.43167e-06
-1.87329e-05
-3.32011e-06
-1.81705e-05
-3.21438e-06
-1.76287e-05
-3.11101e-06
-1.71031e-05
-3.01264e-06
-1.65898e-05
-2.92279e-06
-1.60894e-05
-2.83959e-06
-1.56046e-05
-2.75759e-06
-1.51359e-05
-2.67475e-06
-1.46797e-05
-2.59521e-06
-1.42315e-05
-2.52419e-06
-1.379e-05
-2.46158e-06
-1.33578e-05
-2.40168e-06
-1.29383e-05
-2.33901e-06
-1.25314e-05
-2.27382e-06
-1.21331e-05
-2.21163e-06
-1.1739e-05
-2.15785e-06
-1.13479e-05
-2.11293e-06
-1.09626e-05
-2.07235e-06
-1.0587e-05
-2.0307e-06
-1.02229e-05
-1.98607e-06
-9.86815e-06
-1.94105e-06
-9.51867e-06
-1.90018e-06
-9.17173e-06
-1.86627e-06
-8.82773e-06
-1.83852e-06
-8.4895e-06
-1.81335e-06
-8.15978e-06
-1.78699e-06
-7.83901e-06
-1.75785e-06
-7.52489e-06
-1.72703e-06
-7.2139e-06
-1.69726e-06
-6.90352e-06
-1.67098e-06
-6.59341e-06
-1.64891e-06
-6.28522e-06
-1.62989e-06
-5.9811e-06
-1.61178e-06
-5.68221e-06
-1.59279e-06
-5.38811e-06
-1.57246e-06
-5.09722e-06
-1.55177e-06
-4.80797e-06
-1.53252e-06
-4.51968e-06
-1.51636e-06
-4.23289e-06
-1.5039e-06
-3.94882e-06
-1.4945e-06
-3.66847e-06
-1.48659e-06
-3.39192e-06
-1.4784e-06
-3.11821e-06
-1.46871e-06
-2.84575e-06
-1.45736e-06
-2.57301e-06
-1.44517e-06
-2.29926e-06
-1.43358e-06
-2.02474e-06
-1.42401e-06
-1.75047e-06
-1.41733e-06
-1.47771e-06
-1.41358e-06
-1.20734e-06
-1.41201e-06
-9.39486e-07
-1.41147e-06
-6.73484e-07
-1.41084e-06
-4.08128e-07
-1.4094e-06
-1.42142e-07
-1.40707e-06
1.25398e-07
-1.40433e-06
3.94813e-07
-1.40202e-06
6.65801e-07
-1.40101e-06
9.37659e-07
-1.40195e-06
1.2096e-06
-1.40505e-06
1.48106e-06
-1.41009e-06
1.75192e-06
-1.4165e-06
2.02254e-06
-1.42361e-06
2.29369e-06
-1.43082e-06
2.56627e-06
-1.43779e-06
2.84114e-06
-1.44452e-06
3.11892e-06
-1.45133e-06
3.39985e-06
-1.45875e-06
3.68384e-06
-1.46738e-06
3.97051e-06
-1.47775e-06
4.25938e-06
-1.49014e-06
4.55004e-06
-1.5046e-06
4.84223e-06
-1.5209e-06
5.13596e-06
-1.53862e-06
5.43155e-06
-1.55729e-06
5.72952e-06
-1.57651e-06
6.0306e-06
-1.59603e-06
6.33555e-06
-1.61579e-06
6.64511e-06
-1.63596e-06
6.95988e-06
-1.65685e-06
7.2803e-06
-1.67885e-06
7.60664e-06
-1.70237e-06
7.93901e-06
-1.72781e-06
8.27738e-06
-1.75556e-06
8.62168e-06
-1.78592e-06
8.97181e-06
-1.8192e-06
9.32771e-06
-1.85558e-06
9.68936e-06
-1.89513e-06
1.00568e-05
-1.93778e-06
1.04303e-05
-1.98333e-06
1.08101e-05
-2.03157e-06
1.11966e-05
-2.08236e-06
1.15903e-05
-2.13567e-06
1.1992e-05
-2.19159e-06
1.24021e-05
-2.2502e-06
1.28215e-05
-2.31154e-06
1.32508e-05
-2.3756e-06
1.36907e-05
-2.44242e-06
1.41421e-05
-2.51221e-06
1.46059e-05
-2.58541e-06
1.50828e-05
-2.66254e-06
1.55739e-05
-2.74404e-06
1.60799e-05
-2.83017e-06
1.66018e-05
-2.92114e-06
1.71405e-05
-3.01734e-06
1.76972e-05
-3.11948e-06
1.82733e-05
-3.22842e-06
1.88698e-05
-3.34491e-06
1.94882e-05
-3.46944e-06
2.01296e-05
-3.6024e-06
2.07959e-05
-3.74456e-06
2.14888e-05
-3.89716e-06
2.22103e-05
-4.06164e-06
2.29626e-05
-4.23915e-06
2.37477e-05
-4.43056e-06
2.45681e-05
-4.63698e-06