/*--------------------------------*- C++ -*----------------------------------*\
  =========                 |
  \\      /  F ield         | OpenFOAM: The Open Source CFD Toolbox
   \\    /   O peration     | Website:  https://openfoam.org
    \\  /    A nd           | Version:  11
     \\/     M anipulation  |
\*---------------------------------------------------------------------------*/
FoamFile
{
    format      ascii;
    class       volVectorField;
    location    "1";
    object      U;
}
// * * * * * * * * * * * * * * * * * * * * * * * * * * * * * * * * * * * * * //

dimensions      [0 1 -1 0 0 0 0];

internalField   nonuniform List<vector> 
40000
(
(-0.184965 0.144676 0)
(-0.385771 -0.000504873 0)
(-0.441044 -0.135744 0)
(-0.347667 -0.153994 0)
(-0.270507 -0.141115 0)
(-0.215782 -0.128151 0)
(-0.177295 -0.120331 0)
(-0.149807 -0.116582 0)
(-0.129537 -0.113979 0)
(-0.114084 -0.112279 0)
(-0.101965 -0.111186 0)
(-0.0917313 -0.110152 0)
(-0.0832053 -0.109299 0)
(-0.0764211 -0.108283 0)
(-0.0704532 -0.107459 0)
(-0.0652366 -0.10693 0)
(-0.0607733 -0.106729 0)
(-0.0567822 -0.106609 0)
(-0.0532441 -0.106397 0)
(-0.0500093 -0.106228 0)
(-0.0471586 -0.10603 0)
(-0.0445902 -0.105918 0)
(-0.0421045 -0.105857 0)
(-0.0399699 -0.105649 0)
(-0.0379663 -0.105567 0)
(-0.0360038 -0.1056 0)
(-0.0343703 -0.105456 0)
(-0.0327534 -0.105354 0)
(-0.0310958 -0.105387 0)
(-0.0297632 -0.105313 0)
(-0.028516 -0.105218 0)
(-0.0271163 -0.105233 0)
(-0.0258798 -0.105207 0)
(-0.0248652 -0.105128 0)
(-0.0237835 -0.105119 0)
(-0.0226506 -0.105114 0)
(-0.0216689 -0.10505 0)
(-0.0207973 -0.105036 0)
(-0.0198889 -0.105074 0)
(-0.0189575 -0.105026 0)
(-0.0180975 -0.104927 0)
(-0.0173217 -0.104942 0)
(-0.0165668 -0.105036 0)
(-0.0157866 -0.105015 0)
(-0.015003 -0.104877 0)
(-0.0142742 -0.104826 0)
(-0.0136141 -0.104932 0)
(-0.0129674 -0.105015 0)
(-0.012284 -0.104933 0)
(-0.0115916 -0.104794 0)
(-0.0109563 -0.104783 0)
(-0.0103893 -0.104898 0)
(-0.009833 -0.104968 0)
(-0.00924371 -0.10489 0)
(-0.00864868 -0.104763 0)
(-0.00810603 -0.104735 0)
(-0.00763015 -0.104823 0)
(-0.00718103 -0.104903 0)
(-0.006721 -0.104872 0)
(-0.00625999 -0.104763 0)
(-0.00583788 -0.104689 0)
(-0.00547525 -0.104717 0)
(-0.00515364 -0.104797 0)
(-0.00484163 -0.104833 0)
(-0.00452952 -0.104784 0)
(-0.00423348 -0.104694 0)
(-0.00397061 -0.104646 0)
(-0.00373665 -0.104672 0)
(-0.00350938 -0.104738 0)
(-0.00326998 -0.104778 0)
(-0.00301815 -0.104757 0)
(-0.00276692 -0.104697 0)
(-0.0025256 -0.104651 0)
(-0.00228943 -0.104653 0)
(-0.00204521 -0.104698 0)
(-0.00178614 -0.104748 0)
(-0.00152104 -0.104764 0)
(-0.00126993 -0.104737 0)
(-0.00105008 -0.104688 0)
(-0.000864646 -0.10465 0)
(-0.000702189 -0.104644 0)
(-0.000546345 -0.104665 0)
(-0.000387242 -0.104694 0)
(-0.000226095 -0.104707 0)
(-7.05212e-05 -0.104695 0)
(7.47572e-05 -0.104667 0)
(0.000214321 -0.104641 0)
(0.000360807 -0.104633 0)
(0.000526908 -0.104648 0)
(0.000716132 -0.104677 0)
(0.000918406 -0.104704 0)
(0.0011135 -0.104714 0)
(0.00128042 -0.104702 0)
(0.00140776 -0.104673 0)
(0.00149952 -0.104642 0)
(0.00157375 -0.10462 0)
(0.00165478 -0.104617 0)
(0.00176302 -0.104631 0)
(0.00190683 -0.104655 0)
(0.0020798 -0.104679 0)
(0.00226411 -0.104694 0)
(0.00243803 -0.104694 0)
(0.00258432 -0.104682 0)
(0.00269621 -0.104661 0)
(0.00277908 -0.104642 0)
(0.00284773 -0.104628 0)
(0.00292072 -0.104626 0)
(0.00301396 -0.104633 0)
(0.00313587 -0.104648 0)
(0.00328534 -0.104664 0)
(0.00345288 -0.104677 0)
(0.00362412 -0.104684 0)
(0.00378439 -0.104682 0)
(0.00392289 -0.104674 0)
(0.0040354 -0.104663 0)
(0.00412491 -0.104651 0)
(0.00420037 -0.104642 0)
(0.00427405 -0.104638 0)
(0.00435841 -0.10464 0)
(0.00446324 -0.104648 0)
(0.00459378 -0.104658 0)
(0.00475003 -0.10467 0)
(0.00492724 -0.10468 0)
(0.00511733 -0.104688 0)
(0.00531077 -0.104692 0)
(0.0054984 -0.104692 0)
(0.00567304 -0.104689 0)
(0.00583038 -0.104684 0)
(0.00596943 -0.104678 0)
(0.00609232 -0.104673 0)
(0.00620379 -0.104669 0)
(0.00631038 -0.104667 0)
(0.00641954 -0.104667 0)
(0.0065388 -0.104671 0)
(0.00667502 -0.104677 0)
(0.00683382 -0.104685 0)
(0.00701927 -0.104695 0)
(0.00723379 -0.104707 0)
(0.00747827 -0.104718 0)
(0.00775235 -0.10473 0)
(0.00805473 -0.104741 0)
(0.00838358 -0.104752 0)
(0.00873677 -0.104762 0)
(0.00911212 -0.104773 0)
(0.00950753 -0.104782 0)
(0.00992105 -0.104791 0)
(0.010351 -0.104799 0)
(0.0107961 -0.104806 0)
(0.0112555 -0.104814 0)
(0.011729 -0.104822 0)
(0.0122167 -0.10483 0)
(0.0127191 -0.104839 0)
(0.0132367 -0.104848 0)
(0.0137702 -0.104857 0)
(0.0143205 -0.104866 0)
(0.0148887 -0.104877 0)
(0.0154766 -0.104889 0)
(0.016086 -0.104902 0)
(0.0167188 -0.104915 0)
(0.0173766 -0.104929 0)
(0.018061 -0.104944 0)
(0.0187745 -0.104962 0)
(0.0195199 -0.104981 0)
(0.0203006 -0.105002 0)
(0.0211195 -0.105023 0)
(0.0219798 -0.105046 0)
(0.0228847 -0.105072 0)
(0.0238389 -0.105102 0)
(0.0248482 -0.105135 0)
(0.0259185 -0.105169 0)
(0.0270555 -0.105207 0)
(0.0282656 -0.10525 0)
(0.0295574 -0.105299 0)
(0.0309419 -0.105354 0)
(0.0324307 -0.105414 0)
(0.0340361 -0.105481 0)
(0.0357724 -0.105558 0)
(0.0376589 -0.10565 0)
(0.0397187 -0.105755 0)
(0.041978 -0.105877 0)
(0.0444692 -0.106019 0)
(0.047235 -0.106183 0)
(0.050324 -0.106358 0)
(0.053789 -0.106553 0)
(0.0577055 -0.10681 0)
(0.0621906 -0.107179 0)
(0.0673844 -0.107674 0)
(0.0734512 -0.108311 0)
(0.0806548 -0.109151 0)
(0.0893977 -0.110233 0)
(0.100187 -0.111553 0)
(0.113766 -0.11327 0)
(0.131413 -0.115807 0)
(0.155192 -0.119789 0)
(0.188435 -0.126083 0)
(0.236313 -0.135191 0)
(0.303413 -0.143707 0)
(0.378806 -0.127698 0)
(0.324087 -0.00982124 0)
(0.161079 0.112613 0)
(-0.196276 0.431487 0)
(-0.469484 0.259663 0)
(-0.566761 -0.0701926 0)
(-0.499556 -0.143163 0)
(-0.420701 -0.122914 0)
(-0.3538 -0.0941255 0)
(-0.30121 -0.0723485 0)
(-0.260181 -0.0581775 0)
(-0.228389 -0.0487916 0)
(-0.203647 -0.0419827 0)
(-0.182807 -0.037393 0)
(-0.165915 -0.033838 0)
(-0.152009 -0.0312623 0)
(-0.139919 -0.0290555 0)
(-0.129672 -0.027161 0)
(-0.120656 -0.0257539 0)
(-0.112772 -0.0247003 0)
(-0.105814 -0.0239604 0)
(-0.0995989 -0.0231888 0)
(-0.0940334 -0.0225514 0)
(-0.0889495 -0.0221308 0)
(-0.0844326 -0.0215938 0)
(-0.0803042 -0.0211934 0)
(-0.0763426 -0.0209388 0)
(-0.0728726 -0.0205674 0)
(-0.0697695 -0.0202841 0)
(-0.0665753 -0.0201439 0)
(-0.0637279 -0.0199373 0)
(-0.0613845 -0.0196792 0)
(-0.0588147 -0.0195069 0)
(-0.0562508 -0.019437 0)
(-0.0543812 -0.0193384 0)
(-0.0525599 -0.0191369 0)
(-0.0502548 -0.0189808 0)
(-0.0482987 -0.0189642 0)
(-0.0469954 -0.0189262 0)
(-0.0454528 -0.0187756 0)
(-0.0434947 -0.0186581 0)
(-0.0419348 -0.0186414 0)
(-0.0408729 -0.0186036 0)
(-0.0395953 -0.0185057 0)
(-0.0379989 -0.0184482 0)
(-0.0366679 -0.0184414 0)
(-0.0357208 -0.0183869 0)
(-0.0346768 -0.0182862 0)
(-0.0333717 -0.0182492 0)
(-0.0321807 -0.0182872 0)
(-0.0313114 -0.0182782 0)
(-0.0304826 -0.018169 0)
(-0.0294314 -0.0180687 0)
(-0.0283204 -0.0180818 0)
(-0.0274409 -0.018149 0)
(-0.0267626 -0.0181326 0)
(-0.0260064 -0.0180107 0)
(-0.025059 -0.017903 0)
(-0.0241113 -0.0179077 0)
(-0.023374 -0.0179772 0)
(-0.0228003 -0.0179854 0)
(-0.0221659 -0.0178845 0)
(-0.0213583 -0.0177552 0)
(-0.0204996 -0.0177052 0)
(-0.0197829 -0.0177485 0)
(-0.0192462 -0.0177986 0)
(-0.0187432 -0.0177693 0)
(-0.0181146 -0.0176634 0)
(-0.0173536 -0.0175623 0)
(-0.0165992 -0.01754 0)
(-0.0159858 -0.017594 0)
(-0.0155164 -0.0176557 0)
(-0.0150718 -0.0176593 0)
(-0.0145308 -0.0175989 0)
(-0.0138767 -0.0175267 0)
(-0.0132017 -0.0175023 0)
(-0.0126194 -0.0175415 0)
(-0.0121702 -0.0176079 0)
(-0.0117967 -0.0176457 0)
(-0.0113968 -0.0176234 0)
(-0.0109031 -0.0175543 0)
(-0.0103265 -0.0174813 0)
(-0.0097372 -0.0174438 0)
(-0.00920832 -0.0174516 0)
(-0.0087649 -0.0174832 0)
(-0.00837319 -0.0175048 0)
(-0.00797022 -0.0174955 0)
(-0.00750867 -0.0174591 0)
(-0.00698617 -0.0174197 0)
(-0.00644331 -0.0174034 0)
(-0.00593584 -0.0174218 0)
(-0.0055008 -0.0174649 0)
(-0.00513658 -0.017508 0)
(-0.00480601 -0.017526 0)
(-0.00445772 -0.0175065 0)
(-0.00405241 -0.0174562 0)
(-0.00358043 -0.0173961 0)
(-0.00306337 -0.0173511 0)
(-0.00254137 -0.0173381 0)
(-0.00205395 -0.0173598 0)
(-0.0016236 -0.0174044 0)
(-0.00124868 -0.0174521 0)
(-0.00090694 -0.0174836 0)
(-0.000566525 -0.0174878 0)
(-0.000198937 -0.0174648 0)
(0.000211255 -0.0174245 0)
(0.000662884 -0.0173821 0)
(0.00114101 -0.0173522 0)
(0.00162389 -0.0173435 0)
(0.00209113 -0.0173571 0)
(0.00252994 -0.0173869 0)
(0.00293806 -0.0174223 0)
(0.00332297 -0.0174522 0)
(0.00369838 -0.0174684 0)
(0.00407953 -0.0174674 0)
(0.00447882 -0.017451 0)
(0.00490298 -0.017425 0)
(0.00535219 -0.0173976 0)
(0.00582106 -0.0173763 0)
(0.00630081 -0.0173666 0)
(0.00678198 -0.0173708 0)
(0.00725684 -0.0173878 0)
(0.00772097 -0.0174136 0)
(0.00817384 -0.017443 0)
(0.00861833 -0.0174705 0)
(0.0090596 -0.0174915 0)
(0.00950364 -0.0175035 0)
(0.00995599 -0.0175059 0)
(0.0104208 -0.0174998 0)
(0.0109007 -0.0174878 0)
(0.0113965 -0.017473 0)
(0.0119082 -0.0174587 0)
(0.0124347 -0.0174476 0)
(0.0129745 -0.017442 0)
(0.013526 -0.0174433 0)
(0.0140873 -0.0174523 0)
(0.0146565 -0.017469 0)
(0.0152326 -0.0174924 0)
(0.015815 -0.0175212 0)
(0.0164047 -0.0175536 0)
(0.0170033 -0.017588 0)
(0.0176126 -0.0176229 0)
(0.0182344 -0.0176573 0)
(0.0188701 -0.0176908 0)
(0.0195205 -0.0177232 0)
(0.0201866 -0.0177542 0)
(0.0208699 -0.0177836 0)
(0.0215725 -0.0178113 0)
(0.0222966 -0.0178374 0)
(0.0230435 -0.0178624 0)
(0.023814 -0.0178871 0)
(0.0246083 -0.0179123 0)
(0.0254271 -0.0179385 0)
(0.0262724 -0.0179656 0)
(0.0271466 -0.0179935 0)
(0.0280524 -0.0180224 0)
(0.0289912 -0.018053 0)
(0.0299639 -0.0180862 0)
(0.0309718 -0.0181226 0)
(0.0320176 -0.0181619 0)
(0.0331053 -0.0182037 0)
(0.0342392 -0.0182481 0)
(0.0354223 -0.0182958 0)
(0.0366568 -0.0183482 0)
(0.0379456 -0.018406 0)
(0.039294 -0.0184688 0)
(0.0407089 -0.0185362 0)
(0.0421968 -0.0186089 0)
(0.0437629 -0.0186884 0)
(0.0454124 -0.0187768 0)
(0.0471528 -0.0188745 0)
(0.0489954 -0.0189813 0)
(0.0509519 -0.0190978 0)
(0.0530332 -0.0192268 0)
(0.05525 -0.0193718 0)
(0.057617 -0.0195346 0)
(0.0601543 -0.0197159 0)
(0.0628839 -0.019918 0)
(0.0658279 -0.0201465 0)
(0.0690117 -0.0204082 0)
(0.0724691 -0.020708 0)
(0.0762428 -0.0210516 0)
(0.0803806 -0.0214501 0)
(0.0849372 -0.0219203 0)
(0.0899804 -0.0224763 0)
(0.0955935 -0.0231257 0)
(0.101877 -0.0238832 0)
(0.108969 -0.0247944 0)
(0.117052 -0.0259349 0)
(0.126355 -0.0273854 0)
(0.137162 -0.0292421 0)
(0.149886 -0.0316745 0)
(0.165089 -0.0349346 0)
(0.18349 -0.0393345 0)
(0.20613 -0.0453701 0)
(0.234573 -0.0539556 0)
(0.270985 -0.066528 0)
(0.318178 -0.0847416 0)
(0.378812 -0.108297 0)
(0.449491 -0.124091 0)
(0.505516 -0.0603637 0)
(0.417321 0.230276 0)
(0.186631 0.351568 0)
(-0.116026 0.72986 0)
(-0.32718 0.485977 0)
(-0.428314 -0.0325457 0)
(-0.409743 -0.169385 0)
(-0.368148 -0.15984 0)
(-0.325981 -0.125139 0)
(-0.287004 -0.094682 0)
(-0.254119 -0.071655 0)
(-0.2267 -0.0552001 0)
(-0.204123 -0.043118 0)
(-0.185502 -0.0338951 0)
(-0.169155 -0.0277332 0)
(-0.155411 -0.0225105 0)
(-0.143898 -0.0185992 0)
(-0.133699 -0.015395 0)
(-0.124656 -0.012807 0)
(-0.116784 -0.0107365 0)
(-0.109805 -0.00901588 0)
(-0.10341 -0.00761288 0)
(-0.097789 -0.0062744 0)
(-0.0927075 -0.00524474 0)
(-0.0879101 -0.00450841 0)
(-0.0837919 -0.003582 0)
(-0.0798908 -0.00280507 0)
(-0.0759956 -0.00240184 0)
(-0.0728753 -0.00187262 0)
(-0.0699937 -0.00126638 0)
(-0.0667416 -0.000910967 0)
(-0.0639981 -0.000595367 0)
(-0.0618254 -0.000205402 0)
(-0.059398 7.289e-05 0)
(-0.0569508 0.000307915 0)
(-0.0549387 0.000618526 0)
(-0.0530495 0.000853907 0)
(-0.0511325 0.000969187 0)
(-0.0493693 0.001149 0)
(-0.0476755 0.00140714 0)
(-0.0459887 0.00156966 0)
(-0.044499 0.00163392 0)
(-0.0431635 0.00175174 0)
(-0.0417191 0.00193398 0)
(-0.0402331 0.00206351 0)
(-0.0389894 0.00212516 0)
(-0.0379275 0.00220698 0)
(-0.0367447 0.00232714 0)
(-0.0354435 0.00242108 0)
(-0.0343101 0.00247363 0)
(-0.0334102 0.00254061 0)
(-0.0324909 0.00264156 0)
(-0.031403 0.00272465 0)
(-0.0303206 0.0027571 0)
(-0.0294473 0.00278381 0)
(-0.0287118 0.00286091 0)
(-0.0278919 0.00297052 0)
(-0.0269365 0.0030434 0)
(-0.0260174 0.00305423 0)
(-0.0252776 0.00305695 0)
(-0.0246451 0.00311679 0)
(-0.0239401 0.00322988 0)
(-0.0231047 0.00332875 0)
(-0.0222616 0.00336101 0)
(-0.0215541 0.00334658 0)
(-0.0209794 0.00335273 0)
(-0.0204 0.00342109 0)
(-0.0197016 0.00352667 0)
(-0.0189106 0.00360618 0)
(-0.0181576 0.0036207 0)
(-0.0175406 0.00358946 0)
(-0.017034 0.00356749 0)
(-0.0165226 0.0035942 0)
(-0.0159136 0.00366139 0)
(-0.0152176 0.00372525 0)
(-0.0145309 0.00374635 0)
(-0.0139485 0.00372136 0)
(-0.0134869 0.00368273 0)
(-0.0130774 0.00367103 0)
(-0.0126253 0.00370465 0)
(-0.0120804 0.00376935 0)
(-0.0114673 0.003832 0)
(-0.0108574 0.0038653 0)
(-0.0103136 0.00386478 0)
(-0.00984791 0.00384815 0)
(-0.00941937 0.00384019 0)
(-0.00896729 0.00385543 0)
(-0.00845359 0.00388985 0)
(-0.00788599 0.00392557 0)
(-0.00731043 0.00394358 0)
(-0.00678111 0.00393586 0)
(-0.0063285 0.00390974 0)
(-0.00594331 0.00388308 0)
(-0.00558327 0.00387395 0)
(-0.00519636 0.0038911 0)
(-0.00474651 0.00393006 0)
(-0.00422909 0.00397605 0)
(-0.00367014 0.00401155 0)
(-0.00311206 0.00402435 0)
(-0.00259404 0.00401235 0)
(-0.00213632 0.0039835 0)
(-0.00173427 0.00395162 0)
(-0.00136306 0.00393022 0)
(-0.000989403 0.00392743 0)
(-0.000584728 0.0039435 0)
(-0.000134622 0.00397164 0)
(0.000358135 0.00400131 0)
(0.000876931 0.00402232 0)
(0.00139876 0.00402829 0)
(0.00190256 0.00401827 0)
(0.00237559 0.00399637 0)
(0.00281626 0.00396992 0)
(0.00323307 0.00394672 0)
(0.00364093 0.00393275 0)
(0.0040561 0.00393057 0)
(0.00449169 0.00393903 0)
(0.00495462 0.003954 0)
(0.00544481 0.00396983 0)
(0.00595614 0.00398095 0)
(0.0064789 0.00398331 0)
(0.00700263 0.00397517 0)
(0.00751878 0.00395726 0)
(0.00802246 0.00393232 0)
(0.00851301 0.00390427 0)
(0.00899361 0.00387719 0)
(0.00947001 0.00385445 0)
(0.00994896 0.0038381 0)
(0.0104368 0.00382863 0)
(0.0109386 0.00382513 0)
(0.0114574 0.00382565 0)
(0.0119948 0.0038277 0)
(0.0125506 0.00382874 0)
(0.0131238 0.00382649 0)
(0.0137125 0.00381917 0)
(0.0143143 0.00380555 0)
(0.0149263 0.00378502 0)
(0.015546 0.00375752 0)
(0.0161713 0.00372358 0)
(0.0168015 0.00368422 0)
(0.017437 0.00364079 0)
(0.0180792 0.0035947 0)
(0.0187299 0.00354718 0)
(0.019391 0.00349903 0)
(0.0200635 0.00345067 0)
(0.0207486 0.0034022 0)
(0.0214478 0.0033537 0)
(0.0221632 0.00330531 0)
(0.0228974 0.00325717 0)
(0.0236529 0.00320922 0)
(0.0244313 0.00316096 0)
(0.0252332 0.00311156 0)
(0.0260592 0.00306013 0)
(0.0269104 0.00300613 0)
(0.0277893 0.00294944 0)
(0.0286987 0.00289009 0)
(0.0296411 0.0028278 0)
(0.0306176 0.00276171 0)
(0.0316291 0.00269068 0)
(0.032677 0.00261393 0)
(0.0337648 0.00253134 0)
(0.0348969 0.00244313 0)
(0.0360773 0.00234901 0)
(0.0373084 0.00224775 0)
(0.0385922 0.00213764 0)
(0.0399322 0.00201754 0)
(0.0413347 0.00188728 0)
(0.0428069 0.00174678 0)
(0.0443545 0.00159476 0)
(0.0459821 0.00142858 0)
(0.047695 0.00124553 0)
(0.0495025 0.00104419 0)
(0.0514162 0.000823827 0)
(0.0534474 0.000582215 0)
(0.0556056 0.00031475 0)
(0.0579019 1.61716e-05 0)
(0.0603527 -0.000317344 0)
(0.062979 -0.000689145 0)
(0.0658017 -0.00110532 0)
(0.0688412 -0.00157561 0)
(0.0721232 -0.00211049 0)
(0.0756825 -0.00271943 0)
(0.0795597 -0.00341473 0)
(0.0837979 -0.00421701 0)
(0.088452 -0.0051562 0)
(0.0935964 -0.00626702 0)
(0.0993157 -0.00758383 0)
(0.105696 -0.00914447 0)
(0.11285 -0.0110097 0)
(0.120947 -0.0132794 0)
(0.130184 -0.0160827 0)
(0.140783 -0.0195893 0)
(0.153077 -0.024085 0)
(0.167542 -0.0300133 0)
(0.184709 -0.037953 0)
(0.205231 -0.0487147 0)
(0.22994 -0.063519 0)
(0.259699 -0.0839197 0)
(0.2951 -0.110969 0)
(0.335169 -0.141058 0)
(0.371728 -0.148879 0)
(0.382903 -0.0255865 0)
(0.296485 0.437046 0)
(0.126322 0.614267 0)
(-0.0504083 0.884976 0)
(-0.202416 0.635138 0)
(-0.298526 0.0117269 0)
(-0.310743 -0.177738 0)
(-0.297346 -0.187357 0)
(-0.276287 -0.157161 0)
(-0.253087 -0.124766 0)
(-0.230067 -0.0985304 0)
(-0.209622 -0.0782588 0)
(-0.191538 -0.0631697 0)
(-0.175876 -0.0513919 0)
(-0.162305 -0.042264 0)
(-0.150095 -0.0354641 0)
(-0.139541 -0.0299751 0)
(-0.130151 -0.025422 0)
(-0.121827 -0.0218395 0)
(-0.114419 -0.0189314 0)
(-0.107842 -0.0162948 0)
(-0.101741 -0.0142062 0)
(-0.0962966 -0.0125694 0)
(-0.0916067 -0.0109212 0)
(-0.0869767 -0.00954554 0)
(-0.0826467 -0.00853671 0)
(-0.0790441 -0.00749344 0)
(-0.0756338 -0.00653911 0)
(-0.0722208 -0.00584938 0)
(-0.0690805 -0.00515913 0)
(-0.0663672 -0.0044672 0)
(-0.0639075 -0.00397341 0)
(-0.0612858 -0.00353061 0)
(-0.058739 -0.00300743 0)
(-0.0567693 -0.00257979 0)
(-0.0549045 -0.00229594 0)
(-0.052676 -0.00197577 0)
(-0.0506787 -0.00160077 0)
(-0.0492173 -0.00131676 0)
(-0.0476425 -0.00112207 0)
(-0.0457676 -0.000896024 0)
(-0.0441936 -0.000636228 0)
(-0.043013 -0.000431208 0)
(-0.0416763 -0.000281953 0)
(-0.0401071 -0.000117426 0)
(-0.0387807 6.88075e-05 0)
(-0.0377846 0.000220215 0)
(-0.0367008 0.00032746 0)
(-0.0353828 0.00044404 0)
(-0.0341662 0.000594156 0)
(-0.0332589 0.000733436 0)
(-0.0324222 0.000819561 0)
(-0.0313899 0.000877887 0)
(-0.0302655 0.000967111 0)
(-0.0293186 0.00109949 0)
(-0.0285793 0.0012254 0)
(-0.0278306 0.00129746 0)
(-0.0269339 0.00132872 0)
(-0.0259945 0.00137612 0)
(-0.0251846 0.00147471 0)
(-0.0245146 0.00160049 0)
(-0.0238448 0.00169911 0)
(-0.0230776 0.00174372 0)
(-0.0222658 0.00176 0)
(-0.0215266 0.00179729 0)
(-0.0208946 0.00187967 0)
(-0.0202913 0.00198544 0)
(-0.0196248 0.00207015 0)
(-0.0188919 0.00210744 0)
(-0.018174 0.00210984 0)
(-0.0175449 0.00211437 0)
(-0.0169971 0.0021498 0)
(-0.0164548 0.0022145 0)
(-0.0158519 0.00228116 0)
(-0.0151926 0.00232099 0)
(-0.0145438 0.00232606 0)
(-0.0139725 0.00231351 0)
(-0.0134897 0.00231103 0)
(-0.0130444 0.00233664 0)
(-0.012567 0.00238775 0)
(-0.0120227 0.00244547 0)
(-0.0114319 0.00248896 0)
(-0.010849 0.00250895 0)
(-0.0103193 0.00251177 0)
(-0.0098487 0.00251293 0)
(-0.00940304 0.00252592 0)
(-0.00893569 0.00255387 0)
(-0.00841985 0.00258871 0)
(-0.0078652 0.00261723 0)
(-0.00731008 0.00262957 0)
(-0.00679695 0.0026249 0)
(-0.00634734 0.00261157 0)
(-0.00595053 0.00260215 0)
(-0.0055705 0.00260678 0)
(-0.00516528 0.00262824 0)
(-0.0047075 0.00266108 0)
(-0.00419587 0.00269468 0)
(-0.00365349 0.00271837 0)
(-0.00311545 0.00272596 0)
(-0.00261283 0.00271796 0)
(-0.00216045 0.00270068 0)
(-0.00175273 0.00268317 0)
(-0.00136823 0.00267345 0)
(-0.000979506 0.00267559 0)
(-0.000563826 0.00268871 0)
(-0.000110486 0.00270783 0)
(0.000377159 0.00272616 0)
(0.000884825 0.00273756 0)
(0.00139356 0.00273857 0)
(0.0018865 0.00272922 0)
(0.00235394 0.00271256 0)
(0.00279529 0.00269342 0)
(0.00321813 0.0026767 0)
(0.00363493 0.00266592 0)
(0.00405898 0.00266237 0)
(0.00450074 0.00266497 0)
(0.00496553 0.00267085 0)
(0.00545291 0.00267622 0)
(0.00595764 0.00267752 0)
(0.00647173 0.00267221 0)
(0.00698674 0.00265932 0)
(0.00749595 0.0026395 0)
(0.00799566 0.0026147 0)
(0.00848568 0.00258761 0)
(0.00896882 0.00256099 0)
(0.00944988 0.00253707 0)
(0.00993438 0.00251714 0)
(0.0104274 0.00250142 0)
(0.0109329 0.00248915 0)
(0.0114535 0.00247889 0)
(0.0119904 0.0024688 0)
(0.0125437 0.00245703 0)
(0.0131126 0.00244192 0)
(0.0136957 0.00242213 0)
(0.014291 0.00239675 0)
(0.0148963 0.00236524 0)
(0.0155095 0.0023275 0)
(0.0161291 0.00228385 0)
(0.0167546 0.00223502 0)
(0.0173867 0.00218199 0)
(0.0180265 0.00212581 0)
(0.0186758 0.00206735 0)
(0.0193359 0.00200718 0)
(0.0200077 0.00194553 0)
(0.0206922 0.00188243 0)
(0.0213908 0.00181793 0)
(0.0221057 0.00175214 0)
(0.0228395 0.00168515 0)
(0.0235941 0.0016168 0)
(0.0243709 0.00154653 0)
(0.0251705 0.00147348 0)
(0.0259934 0.00139683 0)
(0.0268413 0.00131608 0)
(0.0277166 0.00123106 0)
(0.0286223 0.00114164 0)
(0.0295602 0.00104723 0)
(0.0305311 0.000946714 0)
(0.031536 0.000838868 0)
(0.032577 0.000722924 0)
(0.0336578 0.000598701 0)
(0.0347826 0.000466046 0)
(0.0359546 0.000324055 0)
(0.0371755 0.000170943 0)
(0.0384477 4.80886e-06 0)
(0.0397756 -0.000175466 0)
(0.0411655 -0.000370321 0)
(0.0426238 -0.000580717 0)
(0.044155 -0.00080913 0)
(0.0457632 -0.00105903 0)
(0.0474547 -0.00133328 0)
(0.0492393 -0.00163361 0)
(0.0511277 -0.00196212 0)
(0.0531291 -0.00232329 0)
(0.0552516 -0.00272352 0)
(0.0575073 -0.00316875 0)
(0.0599132 -0.00366378 0)
(0.0624877 -0.00421505 0)
(0.0652482 -0.00483335 0)
(0.0682137 -0.00553227 0)
(0.0714106 -0.00632503 0)
(0.0748722 -0.00722577 0)
(0.0786322 -0.00825407 0)
(0.0827237 -0.00943506 0)
(0.0871895 -0.0107991 0)
(0.0920943 -0.0123911 0)
(0.0975212 -0.0142782 0)
(0.103553 -0.0165354 0)
(0.110275 -0.0192413 0)
(0.117812 -0.0225175 0)
(0.126322 -0.0265435 0)
(0.135949 -0.0315192 0)
(0.146848 -0.0377232 0)
(0.159285 -0.0456451 0)
(0.173572 -0.0559744 0)
(0.189961 -0.0696103 0)
(0.208619 -0.0877344 0)
(0.22938 -0.111449 0)
(0.251279 -0.140494 0)
(0.271733 -0.167709 0)
(0.281642 -0.159126 0)
(0.264249 0.0135765 0)
(0.187769 0.572965 0)
(0.0793858 0.754107 0)
(-0.0111803 0.9843 0)
(-0.124653 0.750132 0)
(-0.209975 0.067235 0)
(-0.232032 -0.160818 0)
(-0.235569 -0.188665 0)
(-0.230072 -0.167152 0)
(-0.218447 -0.137465 0)
(-0.204648 -0.111097 0)
(-0.190452 -0.0902215 0)
(-0.17699 -0.0731126 0)
(-0.164516 -0.0604479 0)
(-0.153203 -0.0497249 0)
(-0.143114 -0.041407 0)
(-0.133853 -0.0346993 0)
(-0.125563 -0.0292093 0)
(-0.118165 -0.0246231 0)
(-0.111239 -0.020954 0)
(-0.10508 -0.0178628 0)
(-0.099684 -0.0150503 0)
(-0.0945038 -0.0128082 0)
(-0.0896835 -0.0109675 0)
(-0.0855254 -0.00916312 0)
(-0.0817396 -0.0076356 0)
(-0.077893 -0.00644187 0)
(-0.0743514 -0.00527351 0)
(-0.0714952 -0.00419465 0)
(-0.0686114 -0.00335977 0)
(-0.0655558 -0.0025837 0)
(-0.0630614 -0.00178563 0)
(-0.0608593 -0.00113427 0)
(-0.0584471 -0.000625883 0)
(-0.0562392 -9.35904e-05 0)
(-0.0543345 0.000454734 0)
(-0.0523543 0.000894166 0)
(-0.0504734 0.00124037 0)
(-0.0488905 0.00160012 0)
(-0.0472546 0.00197664 0)
(-0.0455027 0.00229441 0)
(-0.0440341 0.00254833 0)
(-0.0428091 0.00280318 0)
(-0.0414053 0.00307592 0)
(-0.0398822 0.0033149 0)
(-0.0386517 0.00349563 0)
(-0.0376687 0.00366503 0)
(-0.0365208 0.00386857 0)
(-0.0351767 0.0040809 0)
(-0.0340206 0.00424388 0)
(-0.0331847 0.0043509 0)
(-0.0323463 0.00445756 0)
(-0.0312554 0.00460936 0)
(-0.0300989 0.00478587 0)
(-0.0291889 0.00492912 0)
(-0.0285138 0.00501397 0)
(-0.0277885 0.00507472 0)
(-0.0268578 0.00516383 0)
(-0.0258714 0.0052958 0)
(-0.0250531 0.00543669 0)
(-0.0244206 0.00554297 0)
(-0.0237968 0.0056043 0)
(-0.0230438 0.0056492 0)
(-0.0222079 0.00571455 0)
(-0.0214344 0.00581227 0)
(-0.0207911 0.00592242 0)
(-0.0202095 0.00601384 0)
(-0.0195795 0.0060707 0)
(-0.0188709 0.00610271 0)
(-0.0181506 0.00613412 0)
(-0.0175006 0.0061835 0)
(-0.0169338 0.00625098 0)
(-0.0163911 0.00632077 0)
(-0.0158071 0.00637467 0)
(-0.0151727 0.00640526 0)
(-0.0145384 0.00641989 0)
(-0.0139635 0.00643435 0)
(-0.0134637 0.00646185 0)
(-0.0130006 0.00650522 0)
(-0.0125164 0.00655662 0)
(-0.0119792 0.00660378 0)
(-0.0114038 0.00663802 0)
(-0.0108345 0.00665886 0)
(-0.0103096 0.00667314 0)
(-0.00983372 0.0066899 0)
(-0.00937839 0.0067147 0)
(-0.00890445 0.00674662 0)
(-0.00839019 0.00677941 0)
(-0.0078451 0.00680548 0)
(-0.00730272 0.00682027 0)
(-0.00679907 0.00682463 0)
(-0.00635122 0.00682417 0)
(-0.00594806 0.00682625 0)
(-0.00555714 0.00683636 0)
(-0.00514203 0.0068557 0)
(-0.00468004 0.00688096 0)
(-0.00417177 0.00690607 0)
(-0.00363883 0.00692498 0)
(-0.00311244 0.00693419 0)
(-0.0026193 0.00693385 0)
(-0.00217109 0.00692737 0)
(-0.00176148 0.00691976 0)
(-0.00137062 0.00691561 0)
(-0.000974127 0.00691743 0)
(-0.000552465 0.00692503 0)
(-9.71529e-05 0.00693587 0)
(0.000387874 0.00694622 0)
(0.000889358 0.00695255 0)
(0.00139043 0.00695268 0)
(0.00187655 0.00694632 0)
(0.0023398 0.00693494 0)
(0.0027804 0.00692111 0)
(0.00320558 0.00690765 0)
(0.00362661 0.00689669 0)
(0.00405516 0.0068892 0)
(0.00450016 0.00688479 0)
(0.00496587 0.00688195 0)
(0.00545148 0.00687853 0)
(0.00595213 0.0068724 0)
(0.00646069 0.00686188 0)
(0.0069699 0.00684623 0)
(0.00747415 0.00682562 0)
(0.00797055 0.00680111 0)
(0.00845929 0.00677427 0)
(0.00894305 0.00674679 0)
(0.00942613 0.0067201 0)
(0.00991329 0.00669507 0)
(0.0104088 0.00667188 0)
(0.010916 0.0066501 0)
(0.0114371 0.00662878 0)
(0.0119729 0.00660674 0)
(0.0125237 0.00658272 0)
(0.0130889 0.0065556 0)
(0.0136673 0.00652441 0)
(0.0142574 0.00648841 0)
(0.014857 0.00644709 0)
(0.0154646 0.0064002 0)
(0.0160788 0.00634784 0)
(0.0166996 0.00629037 0)
(0.0173277 0.00622846 0)
(0.0179645 0.0061628 0)
(0.0186113 0.006094 0)
(0.0192691 0.00602238 0)
(0.0199387 0.005948 0)
(0.020621 0.00587081 0)
(0.0213175 0.00579079 0)
(0.0220304 0.00570804 0)
(0.022762 0.00562261 0)
(0.0235143 0.00553429 0)
(0.0242879 0.00544247 0)
(0.0250835 0.00534629 0)
(0.0259017 0.00524492 0)
(0.0267446 0.0051379 0)
(0.0276148 0.00502502 0)
(0.0285148 0.00490596 0)
(0.0294461 0.00477989 0)
(0.0304092 0.00464552 0)
(0.0314052 0.00450154 0)
(0.0324368 0.00434717 0)
(0.0335078 0.00418209 0)
(0.0346222 0.00400574 0)
(0.0357821 0.00381668 0)
(0.0369891 0.00361273 0)
(0.0382457 0.0033919 0)
(0.039557 0.003153 0)
(0.0409294 0.00289516 0)
(0.042368 0.00261647 0)
(0.0438761 0.00231348 0)
(0.0454578 0.00198232 0)
(0.0471204 0.00162 0)
(0.0488736 0.00122418 0)
(0.0507264 0.000791076 0)
(0.0526859 0.000314329 0)
(0.05476 -0.000213444 0)
(0.0569615 -0.000798583 0)
(0.0593063 -0.00144735 0)
(0.0618093 -0.00216938 0)
(0.0644844 -0.00297866 0)
(0.0673494 -0.00389054 0)
(0.0704295 -0.00492052 0)
(0.0737533 -0.0060892 0)
(0.0773502 -0.00742655 0)
(0.0812528 -0.00896584 0)
(0.0854958 -0.0107366 0)
(0.090117 -0.0127773 0)
(0.0951712 -0.0151595 0)
(0.100732 -0.0179812 0)
(0.106867 -0.0213449 0)
(0.113644 -0.0253864 0)
(0.121181 -0.0303229 0)
(0.129598 -0.0364148 0)
(0.138933 -0.0439419 0)
(0.14923 -0.0533074 0)
(0.160533 -0.0651069 0)
(0.172742 -0.0801137 0)
(0.185599 -0.0991946 0)
(0.198362 -0.122874 0)
(0.209474 -0.149519 0)
(0.216166 -0.169407 0)
(0.210666 -0.143728 0)
(0.181649 0.064222 0)
(0.119542 0.67809 0)
(0.0529539 0.843925 0)
(0.0111637 1.04175 0)
(-0.0807984 0.824933 0)
(-0.153226 0.11019 0)
(-0.175262 -0.14473 0)
(-0.186058 -0.189405 0)
(-0.189734 -0.176859 0)
(-0.186398 -0.152146 0)
(-0.179621 -0.12789 0)
(-0.170673 -0.107212 0)
(-0.161473 -0.0902814 0)
(-0.1524 -0.0764679 0)
(-0.143238 -0.0655378 0)
(-0.135061 -0.0563899 0)
(-0.127341 -0.0487351 0)
(-0.120074 -0.0426735 0)
(-0.113571 -0.0375489 0)
(-0.107659 -0.033022 0)
(-0.101938 -0.0293874 0)
(-0.0966859 -0.026346 0)
(-0.0922136 -0.0235602 0)
(-0.0879614 -0.0212202 0)
(-0.0836446 -0.0192437 0)
(-0.0799253 -0.0174025 0)
(-0.0766819 -0.0158189 0)
(-0.0733865 -0.0145202 0)
(-0.0703069 -0.0132913 0)
(-0.0674694 -0.0121124 0)
(-0.0647929 -0.0111331 0)
(-0.0624579 -0.0103284 0)
(-0.0601259 -0.00954615 0)
(-0.0576982 -0.00877051 0)
(-0.0556886 -0.00810363 0)
(-0.0539166 -0.00755466 0)
(-0.0518903 -0.00703096 0)
(-0.0499726 -0.00650693 0)
(-0.048481 -0.00604447 0)
(-0.0469481 -0.00565775 0)
(-0.0451958 -0.00528598 0)
(-0.0436847 -0.004903 0)
(-0.0424854 -0.00455579 0)
(-0.0411645 -0.00427814 0)
(-0.0396873 -0.00403378 0)
(-0.0384305 -0.00376974 0)
(-0.0374116 -0.0034875 0)
(-0.0362848 -0.00323467 0)
(-0.0350074 -0.00304106 0)
(-0.0338961 -0.0028837 0)
(-0.0330451 -0.00271498 0)
(-0.0321636 -0.00251449 0)
(-0.0310615 -0.00230791 0)
(-0.0299456 -0.00213709 0)
(-0.0290904 -0.00201558 0)
(-0.0284336 -0.00191515 0)
(-0.0276806 -0.00179505 0)
(-0.0267127 -0.00164199 0)
(-0.0257216 -0.00148106 0)
(-0.0249374 -0.00134893 0)
(-0.0243469 -0.00125848 0)
(-0.0237385 -0.00118871 0)
(-0.0229673 -0.00110639 0)
(-0.0221027 -0.000996253 0)
(-0.0213186 -0.000871965 0)
(-0.020693 -0.00076132 0)
(-0.020143 -0.000681847 0)
(-0.0195358 -0.000628257 0)
(-0.0188284 -0.000579676 0)
(-0.0180931 -0.000517652 0)
(-0.017428 -0.000439339 0)
(-0.0168597 -0.00035708 0)
(-0.0163311 -0.000287207 0)
(-0.0157673 -0.00023798 0)
(-0.0151473 -0.00020507 0)
(-0.0145146 -0.000176107 0)
(-0.0139305 -0.000139585 0)
(-0.0134188 -9.16498e-05 0)
(-0.0129495 -3.70161e-05 0)
(-0.0124684 1.53443e-05 0)
(-0.0119413 5.81981e-05 0)
(-0.0113768 8.994e-05 0)
(-0.0108138 0.000114608 0)
(-0.0102882 0.000138742 0)
(-0.0098071 0.000167372 0)
(-0.00934629 0.000201435 0)
(-0.00887093 0.000237714 0)
(-0.00836094 0.000270962 0)
(-0.0078243 0.000296796 0)
(-0.00729089 0.00031384 0)
(-0.00679301 0.000324205 0)
(-0.00634569 0.000332281 0)
(-0.00593831 0.000342628 0)
(-0.00554101 0.000357998 0)
(-0.00512064 0.000378343 0)
(-0.0046571 0.000401094 0)
(-0.00415182 0.000422424 0)
(-0.00362534 0.000438889 0)
(-0.00310656 0.000448697 0)
(-0.00261963 0.000452222 0)
(-0.00217452 0.000451625 0)
(-0.00176447 0.000449874 0)
(-0.00137053 0.000449608 0)
(-0.000970061 0.000452247 0)
(-0.00054537 0.000457656 0)
(-8.92875e-05 0.000464374 0)
(0.00039385 0.000470249 0)
(0.0008913 0.000473227 0)
(0.00138734 0.000471984 0)
(0.00186877 0.000466267 0)
(0.00232874 0.000456847 0)
(0.00276801 0.000445173 0)
(0.00319371 0.000432876 0)
(0.00361648 0.000421266 0)
(0.00404708 0.000410993 0)
(0.00449349 0.000401915 0)
(0.00495927 0.000393191 0)
(0.00544335 0.000383553 0)
(0.00594099 0.000371656 0)
(0.00644555 0.000356416 0)
(0.00695047 0.000337258 0)
(0.00745082 0.000314214 0)
(0.0079443 0.000287869 0)
(0.00843135 0.000259174 0)
(0.00891463 0.000229188 0)
(0.00939814 0.000198816 0)
(0.00988614 0.000168608 0)
(0.0103824 0.000138667 0)
(0.0108898 0.000108666 0)
(0.0114102 7.7959e-05 0)
(0.0119443 4.57279e-05 0)
(0.0124925 1.11195e-05 0)
(0.0130542 -2.66654e-05 0)
(0.0136284 -6.83399e-05 0)
(0.0142136 -0.000114517 0)
(0.0148081 -0.000165685 0)
(0.0154103 -0.000222153 0)
(0.0160193 -0.000283984 0)
(0.0166352 -0.000350967 0)
(0.017259 -0.000422679 0)
(0.017892 -0.000498643 0)
(0.0185354 -0.000578506 0)
(0.0191898 -0.000662151 0)
(0.0198561 -0.000749662 0)
(0.0205349 -0.000841177 0)
(0.021228 -0.000936736 0)
(0.0219375 -0.00103627 0)
(0.0226656 -0.0011398 0)
(0.0234139 -0.00124763 0)
(0.0241829 -0.00136047 0)
(0.0249729 -0.00147923 0)
(0.0257849 -0.00160467 0)
(0.0266213 -0.00173722 0)
(0.0274846 -0.00187715 0)
(0.0283771 -0.00202499 0)