/*--------------------------------*- C++ -*----------------------------------*\
  =========                 |
  \\      /  F ield         | OpenFOAM: The Open Source CFD Toolbox
   \\    /   O peration     | Website:  https://openfoam.org
    \\  /    A nd           | Version:  11
     \\/     M anipulation  |
\*---------------------------------------------------------------------------*/
FoamFile
{
    format      ascii;
    class       volVectorField;
    location    "18";
    object      U;
}
// * * * * * * * * * * * * * * * * * * * * * * * * * * * * * * * * * * * * * //

dimensions      [0 1 -1 0 0 0 0];

internalField   nonuniform List<vector> 
40000
(
(-0.011737 0.00824088 0)
(-0.0167421 -0.00034542 0)
(-0.0145389 -0.00183866 0)
(-0.011477 -0.001508 0)
(-0.00913202 -0.000947535 0)
(-0.00771513 -0.000525259 0)
(-0.00698395 -0.000254258 0)
(-0.00671221 -8.58388e-05 0)
(-0.00676857 2.1545e-05 0)
(-0.00705378 9.11535e-05 0)
(-0.00748212 0.000132933 0)
(-0.00801684 0.000158713 0)
(-0.00863389 0.000175932 0)
(-0.00931767 0.00018757 0)
(-0.0100582 0.000195329 0)
(-0.0108497 0.000200256 0)
(-0.0116889 0.000202953 0)
(-0.0125741 0.000203707 0)
(-0.0135049 0.000202339 0)
(-0.0144806 0.000198286 0)
(-0.0154976 0.000190959 0)
(-0.0165476 0.000179859 0)
(-0.017614 0.000164612 0)
(-0.0186692 0.000144678 0)
(-0.0196742 0.000119074 0)
(-0.0205808 8.66606e-05 0)
(-0.0213382 4.69429e-05 0)
(-0.021902 1.00201e-06 0)
(-0.0222431 -4.79654e-05 0)
(-0.0223499 -9.32525e-05 0)
(-0.0222423 -0.000122323 0)
(-0.0219365 -0.000145794 0)
(-0.0214336 -0.000171146 0)
(-0.0207578 -0.000198435 0)
(-0.0199385 -0.000225195 0)
(-0.0190098 -0.000248605 0)
(-0.0180069 -0.000266517 0)
(-0.0169631 -0.000277658 0)
(-0.0159078 -0.000281536 0)
(-0.0148659 -0.000278269 0)
(-0.0138579 -0.000268346 0)
(-0.0129004 -0.000252444 0)
(-0.0120067 -0.000231287 0)
(-0.0111878 -0.000205589 0)
(-0.0104527 -0.000176048 0)
(-0.0098091 -0.000143368 0)
(-0.00926323 -0.000108239 0)
(-0.00882038 -7.12018e-05 0)
(-0.00848492 -3.25174e-05 0)
(-0.0082605 7.94929e-06 0)
(-0.00814823 5.10548e-05 0)
(-0.00814557 9.54811e-05 0)
(-0.00826899 0.000133066 0)
(-0.0085179 0.00016554 0)
(-0.00887968 0.000191433 0)
(-0.00933919 0.00020945 0)
(-0.009877 0.000218613 0)
(-0.0104707 0.00021879 0)
(-0.0110964 0.000210213 0)
(-0.0117309 0.000193465 0)
(-0.0123531 0.000169743 0)
(-0.012945 0.000140917 0)
(-0.013493 0.000109155 0)
(-0.0139879 7.66389e-05 0)
(-0.0144251 4.53289e-05 0)
(-0.0148045 1.67488e-05 0)
(-0.0151292 -8.07207e-06 0)
(-0.015405 -2.85558e-05 0)
(-0.0156394 -4.45366e-05 0)
(-0.0158402 -5.618e-05 0)
(-0.0160153 -6.38867e-05 0)
(-0.0161716 -6.81839e-05 0)
(-0.0163152 -6.96421e-05 0)
(-0.0164506 -6.88353e-05 0)
(-0.0165815 -6.62896e-05 0)
(-0.0167102 -6.2445e-05 0)
(-0.0168383 -5.76483e-05 0)
(-0.0169665 -5.21604e-05 0)
(-0.0170952 -4.61945e-05 0)
(-0.0172241 -3.99524e-05 0)
(-0.0173526 -3.36351e-05 0)
(-0.0174795 -2.74461e-05 0)
(-0.017603 -2.16068e-05 0)
(-0.0177208 -1.63969e-05 0)
(-0.0178294 -1.22315e-05 0)
(-0.0179244 -9.75305e-06 0)
(-0.0180002 -9.96001e-06 0)
(-0.0180508 -1.40802e-05 0)
(-0.0180701 -2.23899e-05 0)
(-0.0180539 -3.21437e-05 0)
(-0.0179957 -4.08812e-05 0)
(-0.0178787 -5.07077e-05 0)
(-0.0176881 -6.29625e-05 0)
(-0.0174071 -7.88483e-05 0)
(-0.017019 -9.95115e-05 0)
(-0.0165088 -0.000125871 0)
(-0.0158643 -0.000158332 0)
(-0.0150781 -0.000196482 0)
(-0.0141492 -0.000238856 0)
(-0.0130851 -0.0002828 0)
(-0.0119032 -0.00032445 0)
(-0.0106323 -0.000358809 0)
(-0.00931358 -0.000379693 0)
(-0.00799949 -0.000380023 0)
(-0.00675233 -0.000352592 0)
(-0.00564005 -0.000290923 0)
(-0.00472933 -0.000191043 0)
(-0.00407533 -5.52877e-05 0)
(-0.00370764 0.000100486 0)
(-0.00362644 0.000237249 0)
(-0.00391619 0.000307853 0)
(-0.00455363 0.00033515 0)
(-0.00543549 0.000322493 0)
(-0.00646646 0.000277894 0)
(-0.00757465 0.000210121 0)
(-0.00872447 0.000134363 0)
(-0.00990744 6.97489e-05 0)
(-0.0111298 3.1905e-05 0)
(-0.0123994 2.7751e-05 0)
(-0.0137132 5.3997e-05 0)
(-0.0150501 9.90163e-05 0)
(-0.0163707 0.000147247 0)
(-0.0176232 0.000184321 0)
(-0.0187539 0.000200878 0)
(-0.0197169 0.000193896 0)
(-0.0204814 0.000166033 0)
(-0.0210362 0.000123992 0)
(-0.0213899 7.67468e-05 0)
(-0.0215684 3.40076e-05 0)
(-0.0216038 2.70492e-06 0)
(-0.0215481 -2.41673e-05 0)
(-0.0214189 -7.2365e-05 0)
(-0.0212184 -0.000150893 0)
(-0.0209668 -0.000253071 0)
(-0.0207057 -0.000361951 0)
(-0.020503 -0.000433449 0)
(-0.0204381 -0.000412139 0)
(-0.0207204 -0.000300443 0)
(-0.0213873 -0.00015569 0)
(-0.0224299 -7.43551e-06 0)
(-0.0238245 0.000139271 0)
(-0.0255339 0.000286428 0)
(-0.0275069 0.000432444 0)
(-0.0296751 0.000569251 0)
(-0.0319535 0.000684215 0)
(-0.0342474 0.000764002 0)
(-0.0364621 0.000799583 0)
(-0.038512 0.000788791 0)
(-0.0403294 0.000736189 0)
(-0.0418699 0.000651031 0)
(-0.043114 0.000544664 0)
(-0.0440659 0.000428776 0)
(-0.044749 0.000313705 0)
(-0.0452008 0.000207493 0)
(-0.0454688 0.000117485 0)
(-0.0456055 4.95665e-05 0)
(-0.0456652 7.18619e-06 0)
(-0.0457017 -1.18325e-05 0)
(-0.0457651 -1.18009e-05 0)
(-0.045898 5.556e-06 0)
(-0.0461357 3.93412e-05 0)
(-0.0465061 8.7612e-05 0)
(-0.0470304 0.000147681 0)
(-0.0477252 0.000218468 0)
(-0.048604 0.000299706 0)
(-0.0496783 0.000391126 0)
(-0.0509575 0.000492247 0)
(-0.0524487 0.00060244 0)
(-0.0541569 0.000721013 0)
(-0.056085 0.000847271 0)
(-0.0582342 0.000980535 0)
(-0.0606036 0.00112013 0)
(-0.0631908 0.00126534 0)
(-0.0659912 0.00141532 0)
(-0.0689978 0.00156905 0)
(-0.072201 0.00172518 0)
(-0.0755876 0.00188199 0)
(-0.0791407 0.00203726 0)
(-0.0828383 0.00218823 0)
(-0.0866526 0.00233143 0)
(-0.0905488 0.00246256 0)
(-0.0944837 0.00257622 0)
(-0.0984035 0.00266547 0)
(-0.102241 0.00272117 0)
(-0.105913 0.00273068 0)
(-0.109311 0.00267584 0)
(-0.112297 0.00253021 0)
(-0.114685 0.00225698 0)
(-0.116231 0.00180533 0)
(-0.116632 0.00109075 0)
(-0.115513 1.97207e-05 0)
(-0.112314 -0.0013966 0)
(-0.106508 -0.00316472 0)
(-0.0975194 -0.00528947 0)
(-0.084827 -0.00773079 0)
(-0.0682347 -0.0103254 0)
(-0.0483633 -0.0125772 0)
(-0.0269428 -0.0131366 0)
(-0.00578048 -0.00883655 0)
(0.00662835 0.00169777 0)
(-0.00987861 0.0211356 0)
(-0.0158565 0.00213899 0)
(-0.0169536 -0.00358019 0)
(-0.0162128 -0.00363825 0)
(-0.0151782 -0.00254547 0)
(-0.0144361 -0.00149171 0)
(-0.0140931 -0.000687132 0)
(-0.0141181 -0.000100132 0)
(-0.0144715 0.000329809 0)
(-0.0150642 0.000636475 0)
(-0.0158712 0.000859625 0)
(-0.0168586 0.00103242 0)
(-0.0180062 0.00117372 0)
(-0.0193021 0.00129435 0)
(-0.0207404 0.00140236 0)
(-0.0223212 0.00150348 0)
(-0.0240494 0.00160185 0)
(-0.0259333 0.00170063 0)
(-0.0279823 0.00180114 0)
(-0.030201 0.00190139 0)
(-0.0325801 0.00199437 0)
(-0.035087 0.00206632 0)
(-0.0376576 0.00209653 0)
(-0.0401969 0.00206042 0)
(-0.0425878 0.00193601 0)
(-0.0447071 0.00171159 0)
(-0.0464451 0.00139126 0)
(-0.0477202 0.000995996 0)
(-0.0484861 0.000560297 0)
(-0.0487274 0.000124784 0)
(-0.0484837 -0.00028376 0)
(-0.047811 -0.000669677 0)
(-0.0467726 -0.00102364 0)
(-0.0454548 -0.00132619 0)
(-0.0439454 -0.00156387 0)
(-0.0423235 -0.00173253 0)
(-0.0406538 -0.00183564 0)
(-0.0389857 -0.00188112 0)
(-0.0373552 -0.00187849 0)
(-0.0357878 -0.001837 0)
(-0.0343012 -0.00176463 0)
(-0.0329082 -0.00166779 0)
(-0.0316182 -0.00155133 0)
(-0.0304391 -0.00141885 0)
(-0.0293775 -0.00127295 0)
(-0.0284398 -0.00111544 0)
(-0.027632 -0.000947662 0)
(-0.0269597 -0.000770773 0)
(-0.0264283 -0.000586415 0)
(-0.026043 -0.000396927 0)
(-0.0258102 -0.000203167 0)
(-0.0257384 -1.29075e-06 0)
(-0.0258532 0.000205172 0)
(-0.0261658 0.00040881 0)
(-0.0266714 0.000598662 0)
(-0.0273565 0.000765667 0)
(-0.0282012 0.000902827 0)
(-0.0291798 0.00100519 0)
(-0.0302632 0.00106996 0)
(-0.0314206 0.00109686 0)
(-0.0326213 0.00108838 0)
(-0.0338374 0.00104953 0)
(-0.0350448 0.000987069 0)
(-0.0362248 0.000908666 0)
(-0.0373636 0.000822034 0)
(-0.0384527 0.000734167 0)
(-0.039488 0.000650783 0)
(-0.0404685 0.000576036 0)
(-0.0413956 0.000512362 0)
(-0.0422718 0.000460593 0)
(-0.0431 0.000420309 0)
(-0.0438832 0.000390203 0)
(-0.0446237 0.000368465 0)
(-0.0453235 0.00035314 0)
(-0.0459839 0.000342347 0)
(-0.0466057 0.000334459 0)
(-0.0471894 0.000328174 0)
(-0.0477351 0.000322452 0)
(-0.0482427 0.000316446 0)
(-0.0487118 0.000309411 0)
(-0.0491416 0.000300596 0)
(-0.0495309 0.000289174 0)
(-0.0498778 0.00027414 0)
(-0.0501797 0.000254202 0)
(-0.0504331 0.000227677 0)
(-0.0506334 0.000192624 0)
(-0.0507747 0.000147889 0)
(-0.0508497 9.51514e-05 0)
(-0.0508507 3.85174e-05 0)
(-0.0507746 -2.37504e-05 0)
(-0.0505931 -0.000107145 0)
(-0.0502854 -0.000220204 0)
(-0.0498302 -0.000365566 0)
(-0.0492087 -0.000542862 0)
(-0.0484067 -0.000749263 0)
(-0.0474158 -0.000979482 0)
(-0.0462346 -0.00122572 0)
(-0.0448697 -0.0014777 0)
(-0.0433366 -0.00172275 0)
(-0.0416601 -0.00194604 0)
(-0.0398747 -0.00213106 0)
(-0.0380244 -0.0022602 0)
(-0.0361625 -0.00231572 0)
(-0.0343504 -0.00228141 0)
(-0.0326562 -0.00214555 0)
(-0.0311515 -0.00190529 0)
(-0.0299095 -0.00157172 0)
(-0.0290042 -0.00116396 0)
(-0.0285139 -0.000676256 0)
(-0.0285744 -8.36191e-05 0)
(-0.0293552 0.000556528 0)
(-0.0307488 0.00113851 0)
(-0.032695 0.00160194 0)
(-0.0351133 0.00194353 0)
(-0.0379141 0.00218953 0)
(-0.0409991 0.00237658 0)
(-0.0442694 0.00253206 0)
(-0.047624 0.00266274 0)
(-0.0509611 0.00275598 0)
(-0.0541853 0.00278894 0)
(-0.0572138 0.00274007 0)
(-0.0599794 0.0025974 0)
(-0.0624315 0.00236213 0)
(-0.0645359 0.0020481 0)
(-0.0662751 0.00167883 0)
(-0.0676485 0.00128343 0)
(-0.0686732 0.000892489 0)
(-0.0693828 0.000534391 0)
(-0.0698257 0.000232159 0)
(-0.0700612 -3.56857e-07 0)
(-0.0701587 -0.000162701 0)
(-0.07024 -0.000259514 0)
(-0.0703895 -0.000281937 0)
(-0.0707266 -0.00022444 0)
(-0.0713423 -6.65132e-05 0)
(-0.0722736 0.0002209 0)
(-0.0734996 0.000653382 0)
(-0.0749405 0.00119075 0)
(-0.0766739 0.00176865 0)
(-0.0787369 0.00234077 0)
(-0.0811156 0.00287116 0)
(-0.0837607 0.00332635 0)
(-0.0865975 0.00367432 0)
(-0.0895355 0.00388807 0)
(-0.0924756 0.00395029 0)
(-0.0953168 0.00385709 0)
(-0.0979647 0.00361948 0)
(-0.100339 0.00326183 0)
(-0.102382 0.00281844 0)
(-0.104057 0.00232887 0)
(-0.105354 0.00183248 0)
(-0.106287 0.00136456 0)
(-0.10689 0.000952349 0)
(-0.10721 0.0006136 0)
(-0.107303 0.00036076 0)
(-0.107236 0.000195802 0)
(-0.107076 0.000111856 0)
(-0.106869 0.000107156 0)
(-0.106663 0.000178014 0)
(-0.10652 0.00031606 0)
(-0.106483 0.000507035 0)
(-0.106571 0.000733669 0)
(-0.106805 0.000988189 0)
(-0.107198 0.00126422 0)
(-0.107757 0.0015574 0)
(-0.108488 0.00186357 0)
(-0.109392 0.0021786 0)
(-0.110468 0.00249852 0)
(-0.111711 0.00281965 0)
(-0.113112 0.0031386 0)
(-0.114663 0.00345218 0)
(-0.116351 0.00375726 0)
(-0.118163 0.0040506 0)
(-0.120082 0.00432868 0)
(-0.122091 0.00458746 0)
(-0.124171 0.00482218 0)
(-0.126298 0.00502718 0)
(-0.128447 0.00519572 0)
(-0.130589 0.00531974 0)
(-0.132688 0.00538961 0)
(-0.134704 0.00539361 0)
(-0.136589 0.00531732 0)
(-0.138286 0.00514277 0)
(-0.139726 0.00484705 0)
(-0.140824 0.00439998 0)
(-0.141478 0.00376036 0)
(-0.141553 0.00287188 0)
(-0.140875 0.00166193 0)
(-0.139222 4.46012e-05 0)
(-0.136396 -0.00205557 0)
(-0.132155 -0.00472649 0)
(-0.12627 -0.00806152 0)
(-0.118331 -0.0121227 0)
(-0.10786 -0.0169209 0)
(-0.0943973 -0.0223376 0)
(-0.0777161 -0.0279584 0)
(-0.0581707 -0.0326826 0)
(-0.0370566 -0.033894 0)
(-0.016605 -0.0261504 0)
(0.0019561 0.000371526 0)
(-0.00789806 0.0328326 0)
(-0.0134525 0.00765242 0)
(-0.0162393 -0.00235207 0)
(-0.0170988 -0.00368657 0)
(-0.0173355 -0.00276794 0)
(-0.0175097 -0.00156644 0)
(-0.0178204 -0.000526496 0)
(-0.0183364 0.000312831 0)
(-0.0190313 0.000973769 0)
(-0.0199243 0.00149165 0)
(-0.0210156 0.00191217 0)
(-0.0223005 0.00226947 0)
(-0.0237779 0.00258767 0)
(-0.0254507 0.00288421 0)
(-0.0273279 0.00317284 0)
(-0.0294248 0.0034647 0)
(-0.0317604 0.00376859 0)
(-0.0343528 0.00408886 0)
(-0.0372098 0.00442029 0)
(-0.0403153 0.00474233 0)
(-0.0436152 0.00501567 0)
(-0.0470097 0.00518486 0)
(-0.0503585 0.0051887 0)
(-0.0534979 0.00497618 0)
(-0.0562655 0.00452177 0)
(-0.0585241 0.00383386 0)
(-0.0601786 0.00295387 0)
(-0.0611835 0.00194788 0)
(-0.0615402 0.00089458 0)
(-0.0612972 -0.000131227 0)
(-0.0605319 -0.00107975 0)
(-0.0593491 -0.00189976 0)
(-0.0579039 -0.00255707 0)
(-0.0563208 -0.00303986 0)
(-0.0546954 -0.00335741 0)
(-0.0530927 -0.00353201 0)
(-0.0515534 -0.00359082 0)
(-0.0501009 -0.00356019 0)
(-0.0487472 -0.00346254 0)
(-0.0474983 -0.00331533 0)
(-0.0463572 -0.00313124 0)
(-0.0453258 -0.00291894 0)
(-0.0444062 -0.002684 0)
(-0.0436012 -0.00242976 0)
(-0.0429147 -0.00215837 0)
(-0.0423514 -0.0018716 0)
(-0.0419176 -0.00157202 0)
(-0.0416215 -0.00126308 0)
(-0.0414737 -0.000946473 0)
(-0.0414885 -0.000615945 0)
(-0.0416882 -0.000253488 0)
(-0.0421375 0.000149427 0)
(-0.0427967 0.000573864 0)
(-0.043634 0.000992605 0)
(-0.044637 0.00138488 0)
(-0.0457871 0.00173396 0)
(-0.0470647 0.00202697 0)
(-0.048448 0.00225528 0)
(-0.0499146 0.00241507 0)
(-0.0514421 0.00250733 0)
(-0.0530089 0.00253735 0)
(-0.0545955 0.00251378 0)
(-0.0561842 0.00244756 0)
(-0.0577594 0.00235051 0)
(-0.059308 0.00223402 0)
(-0.0608182 0.00210814 0)
(-0.0622805 0.0019808 0)
(-0.0636861 0.00185757 0)
(-0.0650283 0.00174178 0)
(-0.0663012 0.00163479 0)
(-0.0675005 0.00153659 0)
(-0.0686232 0.00144628 0)
(-0.0696676 0.0013625 0)
(-0.070633 0.00128381 0)
(-0.0715195 0.00120888 0)
(-0.0723282 0.00113655 0)
(-0.0730602 0.00106587 0)
(-0.0737169 0.000996034 0)
(-0.0743 0.000926244 0)
(-0.0748105 0.000855658 0)
(-0.0752494 0.000783248 0)
(-0.075617 0.000707718 0)
(-0.0759131 0.000627452 0)
(-0.0761365 0.000540406 0)
(-0.0762851 0.000444026 0)
(-0.0763549 0.000335736 0)
(-0.0763398 0.000213806 0)
(-0.0762338 7.48518e-05 0)
(-0.076029 -9.09895e-05 0)
(-0.0756852 -0.000294508 0)
(-0.0751994 -0.000542721 0)
(-0.0745674 -0.00083489 0)
(-0.0737885 -0.00116754 0)
(-0.0728653 -0.00153485 0)
(-0.0718032 -0.00192838 0)
(-0.0706115 -0.00233693 0)
(-0.069304 -0.00274644 0)
(-0.0679 -0.00314004 0)
(-0.0664244 -0.00349812 0)
(-0.0649088 -0.00379868 0)
(-0.0633922 -0.00401777 0)
(-0.0619206 -0.00413038 0)
(-0.060548 -0.00411161 0)
(-0.0593366 -0.00393821 0)
(-0.0583575 -0.00359033 0)
(-0.057691 -0.00305216 0)
(-0.0574214 -0.00230773 0)
(-0.0576344 -0.00133515 0)
(-0.0584847 -0.000135166 0)
(-0.0600288 0.00119264 0)
(-0.0618442 0.00246421 0)
(-0.0640263 0.00357517 0)
(-0.0666066 0.00449763 0)
(-0.0695692 0.00523019 0)
(-0.0728562 0.00578461 0)
(-0.0763776 0.00617382 0)
(-0.0800271 0.00640694 0)
(-0.0836953 0.00648828 0)
(-0.0872793 0.00641898 0)
(-0.0906877 0.00619994 0)
(-0.0938448 0.00583563 0)
(-0.0966929 0.00533734 0)
(-0.0991919 0.00472537 0)
(-0.10132 0.00402952 0)
(-0.103072 0.00328759 0)
(-0.104459 0.00254241 0)
(-0.105507 0.00183825 0)
(-0.106256 0.0012171 0)
(-0.106757 0.000715216 0)
(-0.10707 0.00036016 0)
(-0.107262 0.000168144 0)
(-0.107411 0.000143834 0)
(-0.107618 0.000279222 0)
(-0.107931 0.00055728 0)
(-0.108405 0.000967103 0)
(-0.109095 0.00150051 0)
(-0.110026 0.00215405 0)
(-0.111205 0.00291419 0)
(-0.112622 0.00373388 0)
(-0.114262 0.00454226 0)
(-0.116095 0.00527227 0)
(-0.118074 0.00586712 0)
(-0.120132 0.00628005 0)
(-0.122191 0.00647605 0)
(-0.124167 0.00643579 0)
(-0.12598 0.00615955 0)
(-0.127558 0.00566874 0)
(-0.128847 0.00500427 0)
(-0.129817 0.00422177 0)
(-0.130459 0.00338381 0)
(-0.130789 0.00254846 0)
(-0.130843 0.00176503 0)
(-0.130669 0.00107204 0)
(-0.130321 0.000494676 0)
(-0.129852 5.12522e-05 0)
(-0.129322 -0.00024287 0)
(-0.128779 -0.000388849 0)
(-0.128267 -0.000399246 0)
(-0.127813 -0.000289723 0)
(-0.127423 -7.86762e-05 0)
(-0.127112 0.000212341 0)
(-0.126891 0.000560637 0)
(-0.126771 0.000944792 0)
(-0.126755 0.00135536 0)
(-0.126846 0.00178623 0)
(-0.127043 0.00223035 0)
(-0.12734 0.00268047 0)
(-0.127734 0.00312969 0)
(-0.128214 0.00357178 0)
(-0.12877 0.00400124 0)
(-0.129391 0.00441312 0)
(-0.130062 0.00480283 0)
(-0.130769 0.00516579 0)
(-0.131497 0.0054971 0)
(-0.132229 0.0057912 0)
(-0.132949 0.00604152 0)
(-0.133637 0.00624014 0)
(-0.134275 0.00637747 0)
(-0.134841 0.00644187 0)
(-0.135314 0.00641916 0)
(-0.135669 0.0062919 0)
(-0.135876 0.00603849 0)
(-0.135904 0.00563182 0)
(-0.135714 0.00503723 0)
(-0.135262 0.00420914 0)
(-0.134495 0.00308698 0)
(-0.133338 0.00159421 0)
(-0.131674 -0.000354713 0)
(-0.129485 -0.00283855 0)
(-0.126664 -0.00596426 0)
(-0.122939 -0.00989801 0)
(-0.117998 -0.0148274 0)
(-0.111443 -0.0208953 0)
(-0.102816 -0.0281382 0)
(-0.0916553 -0.0363725 0)
(-0.07763 -0.0449505 0)
(-0.060771 -0.0522563 0)
(-0.0417756 -0.0547233 0)
(-0.0222819 -0.045093 0)
(-0.00436943 -0.0103203 0)
(-0.00651313 0.0424601 0)
(-0.0118373 0.0129575 0)
(-0.0152435 -0.000158247 0)
(-0.0170039 -0.002731 0)
(-0.0180653 -0.00215284 0)
(-0.0189385 -0.000983552 0)
(-0.0198133 0.000151097 0)
(-0.0207547 0.00112959 0)
(-0.0217979 0.00194423 0)
(-0.0229891 0.00263757 0)
(-0.0243482 0.00324521 0)
(-0.0258926 0.00379776 0)
(-0.0276399 0.00432155 0)
(-0.0296107 0.00483897 0)
(-0.0318299 0.00536907 0)
(-0.0343259 0.00592668 0)
(-0.0371245 0.00651871 0)
(-0.0402379 0.00713649 0)
(-0.0436493 0.00774636 0)
(-0.0472973 0.00828417 0)
(-0.0510673 0.00865995 0)
(-0.0547984 0.00877461 0)
(-0.0583034 0.00854411 0)
(-0.0613971 0.00792199 0)
(-0.0639241 0.00691247 0)
(-0.0657796 0.00557111 0)
(-0.0669206 0.0039946 0)
(-0.0673664 0.00230416 0)
(-0.0671932 0.000626446 0)
(-0.0665294 -0.000926644 0)
(-0.0655112 -0.00226093 0)
(-0.0643084 -0.00330999 0)
(-0.0630524 -0.00406079 0)
(-0.061829 -0.00454047 0)
(-0.0606882 -0.00479495 0)
(-0.0596543 -0.00487415 0)
(-0.0587352 -0.00482335 0)
(-0.0579302 -0.0046792 0)
(-0.0572353 -0.00446902 0)
(-0.056646 -0.00421166 0)
(-0.0561597 -0.00391927 0)
(-0.0557757 -0.00359919 0)
(-0.0554957 -0.00325553 0)
(-0.0553239 -0.00289047 0)
(-0.0552673 -0.00250564 0)
(-0.0553366 -0.00210157 0)
(-0.0555459 -0.00167546 0)
(-0.0559134 -0.00121657 0)
(-0.056462 -0.000704022 0)
(-0.0572394 -0.000128059 0)
(-0.0582601 0.000489881 0)
(-0.0594002 0.00110771 0)
(-0.0606259 0.0016996 0)
(-0.061928 0.00225256 0)
(-0.0632968 0.00275522 0)
(-0.0647244 0.0031955 0)
(-0.0662037 0.00356284 0)
(-0.0677266 0.00384993 0)
(-0.0692844 0.00405375 0)
(-0.0708676 0.00417588 0)
(-0.0724658 0.00422214 0)
(-0.074068 0.00420173 0)
(-0.0756627 0.00412586 0)
(-0.077238 0.00400659 0)
(-0.0787818 0.00385556 0)
(-0.080282 0.00368314 0)
(-0.0817274 0.003498 0)
(-0.0831074 0.0033068 0)
(-0.0844133 0.00311433 0)
(-0.0856376 0.00292379 0)
(-0.086775 0.00273711 0)
(-0.0878219 0.00255529 0)
(-0.0887765 0.00237869 0)
(-0.0896385 0.00220727 0)
(-0.0904087 0.00204069 0)
(-0.091089 0.00187849 0)
(-0.0916815 0.00172009 0)
(-0.0921888 0.00156472 0)
(-0.0926134 0.00141144 0)
(-0.0929578 0.00125903 0)
(-0.0932238 0.00110591 0)
(-0.0934129 0.000950063 0)
(-0.0935258 0.000788995 0)
(-0.0935628 0.000619581 0)
(-0.0935226 0.000438001 0)
(-0.0934026 0.000239642 0)
(-0.0932006 1.82048e-05 0)
(-0.0929115 -0.000237018 0)
(-0.0925114 -0.000532588 0)
(-0.0920147 -0.000869551 0)
(-0.0914295 -0.00124323 0)
(-0.090762 -0.00165194 0)
(-0.0900198 -0.00209221 0)
(-0.089212 -0.0025572 0)
(-0.0883503 -0.00303624 0)
(-0.0874492 -0.00351479 0)
(-0.0865269 -0.0039744 0)
(-0.085606 -0.0043928 0)
(-0.0847138 -0.00474405 0)
(-0.0838826 -0.00499893 0)
(-0.0831503 -0.00512543 0)
(-0.0825594 -0.00508974 0)
(-0.0821572 -0.00485781 0)
(-0.0819936 -0.00439783 0)
(-0.0821182 -0.00368358 0)
(-0.0825723 -0.00269873 0)
(-0.0833819 -0.00144517 0)
(-0.0845772 3.2448e-05 0)
(-0.0861048 0.0016203 0)
(-0.0877091 0.00318036 0)
(-0.089582 0.0046839 0)
(-0.0917458 0.00609009 0)
(-0.0941939 0.00732825 0)
(-0.0969002 0.0083463 0)
(-0.0998143 0.00911866 0)
(-0.102864 0.00963761 0)
(-0.105964 0.00990443 0)
(-0.109021 0.00992436 0)
(-0.11195 0.00970556 0)
(-0.114671 0.00926061 0)
(-0.117122 0.00860865 0)
(-0.119257 0.00777761 0)
(-0.121048 0.00680533 0)
(-0.122487 0.00573911 0)
(-0.123584 0.00463365 0)
(-0.124365 0.00354756 0)
(-0.124866 0.00253877 0)
(-0.125135 0.00165994 0)
(-0.125224 0.000953992 0)
(-0.125189 0.00045267 0)
(-0.125085 0.000176629 0)
(-0.12497 0.000132502 0)
(-0.124903 0.000318389 0)
(-0.124936 0.000723124 0)
(-0.125105 0.00132017 0)
(-0.125432 0.00208032 0)
(-0.125919 0.00296964 0)
(-0.126556 0.00394509 0)
(-0.127317 0.00494808 0)
(-0.128173 0.00590574 0)
(-0.129084 0.00674166 0)
(-0.130001 0.00738529 0)
(-0.130866 0.00777827 0)
(-0.131613 0.00787981 0)
(-0.132179 0.00767232 0)
(-0.132505 0.00716642 0)
(-0.132549 0.00640195 0)
(-0.13229 0.00544236 0)
(-0.131737 0.00436356 0)
(-0.130931 0.00324578 0)
(-0.129935 0.00216004 0)
(-0.128825 0.00117155 0)
(-0.127671 0.000346294 0)
(-0.126563 -0.000270744 0)
(-0.12562 -0.000676031 0)
(-0.124857 -0.000893248 0)
(-0.124257 -0.000947367 0)
(-0.123798 -0.000866522 0)
(-0.123451 -0.000675816 0)
(-0.123188 -0.000396178 0)
(-0.122985 -4.38146e-05 0)
(-0.122819 0.000367482 0)
(-0.122679 0.00081903 0)
(-0.122582 0.00129942 0)
(-0.122525 0.00179887 0)
(-0.122504 0.00230741 0)
(-0.122514 0.00281538 0)
(-0.122547 0.00331387 0)
(-0.122594 0.003795 0)
(-0.122644 0.00425198 0)
(-0.122688 0.00467894 0)
(-0.122714 0.00507065 0)
(-0.122714 0.00542217 0)
(-0.122676 0.00572847 0)
(-0.122591 0.00598396 0)
(-0.122451 0.00618221 0)
(-0.122246 0.00631548 0)
(-0.121969 0.00637439 0)
(-0.121614 0.00634741 0)
(-0.121175 0.00622029 0)
(-0.120646 0.00597525 0)
(-0.12002 0.00558982 0)
(-0.119293 0.00503498 0)
(-0.118458 0.00427218 0)
(-0.117508 0.00324936 0)
(-0.116429 0.00189873 0)
(-0.115176 0.000140046 0)
(-0.113746 -0.00210852 0)
(-0.112164 -0.0049772 0)
(-0.110194 -0.00869463 0)
(-0.107653 -0.0134957 0)
(-0.104267 -0.0196226 0)
(-0.0996774 -0.0272887 0)
(-0.09344 -0.0365918 0)
(-0.08506 -0.0473553 0)
(-0.0740673 -0.0588207 0)
(-0.0601494 -0.0690592 0)
(-0.0433806 -0.0738632 0)
(-0.0247189 -0.0646561 0)
(-0.0070367 -0.0248246 0)
(-0.00551062 0.0506797 0)
(-0.0106815 0.0181814 0)
(-0.0143255 0.00267753 0)
(-0.0165971 -0.00110056 0)
(-0.018195 -0.000920951 0)
(-0.0195602 0.000138767 0)
(-0.0208494 0.00127247 0)
(-0.0221336 0.00229501 0)
(-0.0234813 0.00320956 0)
(-0.0249373 0.00404162 0)
(-0.0265361 0.00481741 0)
(-0.0283084 0.00556398 0)
(-0.030285 0.0063083 0)
(-0.0324987 0.0070758 0)
(-0.0349849 0.00788782 0)
(-0.0377767 0.00875621 0)
(-0.0408953 0.0096738 0)
(-0.0443347 0.010602 0)
(-0.0480458 0.0114614 0)
(-0.0519249 0.0121343 0)
(-0.0558168 0.012483 0)
(-0.0595317 0.0123806 0)
(-0.062874 0.0117437 0)
(-0.0656727 0.0105544 0)
(-0.067808 0.0088681 0)
(-0.0692278 0.00680439 0)
(-0.0699544 0.00452823 0)
(-0.0700783 0.00222399 0)
(-0.0697448 6.76903e-05 0)
(-0.0691338 -0.00179705 0)
(-0.0684076 -0.00327158 0)
(-0.0676965 -0.0043317 0)
(-0.0670741 -0.00501271 0)
(-0.0665744 -0.00538071 0)
(-0.0662063 -0.00550838 0)
(-0.0659647 -0.00546117 0)
(-0.0658391 -0.0052914 0)
(-0.0658188 -0.0050374 0)
(-0.0658953 -0.00472506 0)
(-0.0660637 -0.00437038 0)
(-0.0663231 -0.00398224 0)
(-0.066676 -0.00356507 0)
(-0.0671285 -0.00311997 0)
(-0.06769 -0.00264453 0)
(-0.0683725 -0.00213313 0)
(-0.0691893 -0.00157429 0)
(-0.0701541 -0.000952639 0)
(-0.0712898 -0.000266839 0)
(-0.0725947 0.000458253 0)
(-0.07394 0.00117921 0)
(-0.0752564 0.00186339 0)
(-0.0765733 0.00250688 0)
(-0.0778987 0.00311659 0)
(-0.0792337 0.00368866 0)
(-0.0805756 0.00421145 0)
(-0.0819209 0.00467137 0)
(-0.0832661 0.00505635 0)
(-0.084608 0.00535771 0)
(-0.0859434 0.00557121 0)
(-0.0872688 0.00569721 0)
(-0.0885797 0.00574023 0)
(-0.0898708 0.00570815 0)
(-0.0911355 0.00561106 0)
(-0.0923662 0.00546005 0)
(-0.093555 0.00526635 0)
(-0.0946933 0.00504049 0)
(-0.0957732 0.00479175 0)
(-0.0967874 0.00452799 0)
(-0.0977301 0.00425551 0)
(-0.0985966 0.00397922 0)
(-0.0993839 0.0037029 0)
(-0.100091 0.00342931 0)
(-0.100717 0.0031604 0)
(-0.101265 0.00289744 0)
(-0.101736 0.00264111 0)
(-0.102133 0.00239165 0)
(-0.102459 0.00214885 0)
(-0.102718 0.00191211 0)
(-0.102913 0.00168038 0)
(-0.103046 0.00145213 0)
(-0.10312 0.00122539 0)
(-0.103137 0.000997582 0)
(-0.103097 0.000765571 0)
(-0.103001 0.000525608 0)
(-0.102851 0.000273101 0)
(-0.102646 1.40945e-06 0)
(-0.102387 -0.000298476 0)
(-0.102073 -0.000630561 0)
(-0.101717 -0.000993817 0)
(-0.10133 -0.00138665 0)
(-0.100918 -0.00180841 0)
(-0.100488 -0.00225727 0)
(-0.100048 -0.00272816 0)
(-0.0996073 -0.00321202 0)
(-0.0991788 -0.00369544 0)
(-0.0987769 -0.0041606 0)
(-0.098419 -0.00458538 0)
(-0.0981252 -0.00494368 0)
(-0.0979183 -0.00520582 0)
(-0.0978231 -0.00533924 0)
(-0.0978653 -0.00530964 0)
(-0.09807 -0.00508277 0)
(-0.0984595 -0.00462702 0)
(-0.0990505 -0.00391707 0)
(-0.0998489 -0.00293887 0)
(-0.100848 -0.00169644 0)
(-0.102033 -0.0002214 0)
(-0.10337 0.00142131 0)
(-0.104734 0.0031411 0)
(-0.106262 0.0049027 0)
(-0.10796 0.00664529 0)
(-0.109813 0.00827712 0)
(-0.111806 0.00971467 0)
(-0.113914 0.0108938 0)
(-0.116094 0.0117723 0)
(-0.118294 0.0123278 0)
(-0.120447 0.0125532 0)
(-0.122485 0.012453 0)
(-0.124341 0.0120417 0)
(-0.125957 0.0113432 0)
(-0.127289 0.0103924 0)
(-0.128308 0.00923532 0)
(-0.129007 0.00792917 0)
(-0.129397 0.00654044 0)
(-0.129506 0.00514128 0)
(-0.129377 0.00380386 0)
(-0.129063 0.00259251 0)
(-0.128623 0.00156111 0)
(-0.128114 0.000752346 0)
(-0.127584 0.000198229 0)
(-0.12708 -7.79025e-05 0)
(-0.126654 -7.35439e-05 0)
(-0.126318 0.000192799 0)
(-0.126069 0.000698136 0)
(-0.125913 0.00140512 0)
(-0.125852 0.002273 0)
(-0.125866 0.00325835 0)
(-0.125927 0.00430758 0)
(-0.126 0.00535252 0)
(-0.126044 0.00631408 0)
(-0.126013 0.00711004 0)
(-0.125859 0.00766358 0)
(-0.125528 0.00791159 0)
(-0.124965 0.00781303 0)
(-0.124116 0.00735711 0)
(-0.122938 0.00656835 0)
(-0.121415 0.00550478 0)
(-0.119564 0.00424913 0)
(-0.117446 0.00289901 0)
(-0.115159 0.00157528 0)
(-0.112814 0.000415356 0)
(-0.110657 -0.000476756 0)
(-0.108912 -0.00107611 0)
(-0.107615 -0.00141497 0)
(-0.106667 -0.00154792 0)
(-0.106008 -0.00152917 0)
(-0.105582 -0.00139787 0)
(-0.105338 -0.00117845 0)
(-0.105228 -0.000889895 0)
(-0.105208 -0.000547765 0)
(-0.105241 -0.000163914 0)
(-0.105292 0.000255223 0)
(-0.105348 0.000715296 0)
(-0.105403 0.00120742 0)
(-0.105447 0.00171594 0)
(-0.105472 0.00222737 0)
(-0.105468 0.00273038 0)
(-0.105426 0.00321537 0)
(-0.105338 0.00367428 0)
(-0.105194 0.0041004 0)
(-0.104989 0.00448817 0)
(-0.104715 0.00483284 0)
(-0.104368 0.00513015 0)
(-0.103944 0.00537594 0)
(-0.103439 0.00556571 0)
(-0.102854 0.00569424 0)
(-0.102189 0.0057552 0)
(-0.101446 0.00574065 0)
(-0.100632 0.00564055 0)
(-0.0997523 0.00544203 0)
(-0.0988173 0.0051284 0)
(-0.0978382 0.00467779 0)
(-0.0968289 0.00406105 0)
(-0.095807 0.00323864 0)
(-0.0947915 0.00215818 0)
(-0.0937908 0.000757124 0)
(-0.0927769 -0.00103629 0)
(-0.0919508 -0.003337 0)
(-0.0910821 -0.00636544 0)
(-0.0901083 -0.0103878 0)
(-0.0888845 -0.0156967 0)
(-0.0871858 -0.0226161 0)
(-0.0846886 -0.0314547 0)
(-0.0809593 -0.0424094 0)
(-0.0754605 -0.0553792 0)
(-0.0675794 -0.0696127 0)
(-0.056694 -0.0830412 0)
(-0.0423571 -0.0910165 0)
(-0.0249382 -0.0837724 0)
(-0.0078478 -0.0404459 0)
(-0.00475818 0.0579859 0)
(-0.00982383 0.0232582 0)
(-0.013564 0.00570667 0)
(-0.0160677 0.00101698 0)
(-0.0180162 0.000770372 0)
(-0.019705 0.001662 0)
(-0.0212875 0.00272598 0)
(-0.0228464 0.00376234 0)
(-0.0244417 0.0047457 0)
(-0.0261189 0.00568869 0)
(-0.0279179 0.00661285 0)
(-0.029877 0.00754398 0)
(-0.0320342 0.00850983 0)
(-0.0344288 0.00953673 0)
(-0.0370991 0.0106435 0)
(-0.0400758 0.011831 0)
(-0.0433694 0.0130671 0)
(-0.0469553 0.0142725 0)
(-0.05076 0.0153162 0)
(-0.0546568 0.0160293 0)
(-0.0584759 0.0162376 0)
(-0.0620273 0.0158035 0)
(-0.0651315 0.0146627 0)
(-0.0676503 0.012844 0)
(-0.06951 0.0104684 0)
(-0.0707146 0.00773088 0)
(-0.0713448 0.00486925 0)
(-0.0715433 0.00212608 0)
(-0.0714871 -0.000291272 0)
(-0.0713515 -0.00224161 0)
(-0.0712649 -0.00367489 0)
(-0.0712973 -0.00462275 0)
(-0.0714746 -0.00516312 0)
(-0.0717958 -0.00538831 0)
(-0.072247 -0.00538426 0)
(-0.072811 -0.00522052 0)
(-0.073472 -0.00494817 0)
(-0.0742186 -0.00460176 0)
(-0.0750439 -0.0042027 0)
(-0.0759451 -0.00376248 0)
(-0.0769236 -0.00328546 0)
(-0.0779829 -0.00277184 0)
(-0.0791266 -0.00221809 0)
(-0.0803571 -0.00161596 0)
(-0.0816745 -0.000959344 0)
(-0.0830809 -0.000255477 0)
(-0.0845471 0.000473016 0)
(-0.0859697 0.00119268 0)
(-0.0872931 0.00187965 0)
(-0.088562 0.00253659 0)
(-0.0897961 0.0031763 0)
(-0.0910012 0.00379993 0)
(-0.0921744 0.00439758 0)
(-0.0933104 0.00495586 0)
(-0.094404 0.0054606 0)
(-0.0954515 0.00589857 0)
(-0.0964508 0.00625884 0)
(-0.0974015 0.0065337 0)
(-0.0983037 0.00671925 0)
(-0.0991583 0.0068156 0)
(-0.0999656 0.00682654 0)
(-0.100725 0.0067589 0)
(-0.101437 0.00662175 0)
(-0.102098 0.00642543 0)
(-0.102708 0.00618071 0)
(-0.103263 0.00589823 0)
(-0.103762 0.00558791 0)
(-0.104204 0.00525853 0)
(-0.104588 0.0049176 0)
(-0.104915 0.00457131 0)
(-0.105187 0.0042248 0)
(-0.105407 0.00388213 0)
(-0.105577 0.00354632 0)
(-0.105703 0.00321941 0)
(-0.10579 0.00290255 0)
(-0.105842 0.00259615 0)
(-0.105863 0.00229994 0)
(-0.105857 0.00201298 0)
(-0.105828 0.00173381 0)
(-0.105778 0.0014604 0)
(-0.105709 0.00119019 0)
(-0.105621 0.000920143 0)
(-0.105515 0.00064679 0)
(-0.10539 0.00036637 0)
(-0.105247 7.48579e-05 0)
(-0.105088 -0.000232477 0)
(-0.104917 -0.000559617 0)
(-0.104748 -0.000906815 0)
(-0.104588 -0.00127556 0)
(-0.104442 -0.00166726 0)
(-0.104315 -0.00208191 0)
(-0.104212 -0.00251692 0)
(-0.104139 -0.00296581 0)
(-0.104104 -0.00341756 0)
(-0.104117 -0.00385652 0)
(-0.104188 -0.00426271 0)
(-0.104331 -0.00461213 0)
(-0.104559 -0.00487731 0)
(-0.104886 -0.00502799 0)
(-0.105326 -0.00503223 0)
(-0.10589 -0.00485793 0)
(-0.106583 -0.00447484 0)
(-0.107408 -0.00385762 0)
(-0.108357 -0.00299028 0)
(-0.109417 -0.00187157 0)
(-0.110564 -0.000518663 0)
(-0.111765 0.00103546 0)
(-0.112965 0.00273698 0)
(-0.114232 0.00454825 0)
(-0.115563 0.00641592 0)
(-0.116937 0.00825181 0)
(-0.118334 0.00996003 0)
(-0.119733 0.0114519 0)
(-0.121107 0.0126548 0)
(-0.122425 0.0135161 0)
(-0.123645 0.0140038 0)
(-0.124721 0.0141049 0)
(-0.125604 0.0138236 0)
(-0.12625 0.0131793 0)
(-0.12662 0.0122069 0)
(-0.12669 0.0109562 0)
(-0.126454 0.00949157 0)
(-0.125923 0.00789059 0)
(-0.12513 0.00623898 0)